
     Program PWSCF v.6.5 starts on  9Jul2022 at 10:38:30 

     This program is part of the open-source Quantum ESPRESSO suite
     for quantum simulation of materials; please cite
         "P. Giannozzi et al., J. Phys.:Condens. Matter 21 395502 (2009);
         "P. Giannozzi et al., J. Phys.:Condens. Matter 29 465901 (2017);
          URL http://www.quantum-espresso.org", 
     in publications or presentations arising from this work. More details at
     http://www.quantum-espresso.org/quote

     Parallel version (MPI), running on    96 processors

     MPI processes distributed on     2 nodes
     R & G space division:  proc/nbgrp/npool/nimage =      96
     Waiting for input...
     Reading input from standard input
     Message from routine read_cards :
     DEPRECATED: no units specified in CELL_PARAMETERS card

     Current dimensions of program PWSCF are:
     Max number of different atomic species (ntypx) = 10
     Max number of k-points (npk) =  40000
     Max angular momentum in pseudopotentials (lmaxx) =  3

     Subspace diagonalization in iterative solution of the eigenvalue problem:
     one sub-group per band group will be used
     scalapack distributed-memory algorithm (size of sub-group:  9*  9 procs)

 
     Parallelization info
     --------------------
     sticks:   dense  smooth     PW     G-vecs:    dense   smooth      PW
     Min          12      12      4                  110      110      22
     Max          13      13      5                  113      113      25
     Sum        1235    1235    427                10763    10763    2185
 


     bravais-lattice index     =            0
     lattice parameter (alat)  =      15.5291  a.u.
     unit-cell volume          =     314.8636 (a.u.)^3
     number of atoms/cell      =            8
     number of atomic types    =            1
     number of electrons       =        32.00
     number of Kohn-Sham states=           20
     kinetic-energy cutoff     =      40.0000  Ry
     charge density cutoff     =     160.0000  Ry
     convergence threshold     =      1.0E-08
     mixing beta               =       0.5000
     number of iterations used =            8  plain     mixing
     Exchange-correlation=  SLA  PW   PBE  PBE
                           (   1   4   3   4   0   0   0)
     nstep                     =          250


     celldm(1)=  15.529100  celldm(2)=   0.000000  celldm(3)=   0.000000
     celldm(4)=   0.000000  celldm(5)=   0.000000  celldm(6)=   0.000000

     crystal axes: (cart. coord. in units of alat)
               a(1) = (   1.000000   0.000000   0.000032 )  
               a(2) = (   0.000000   0.402187   0.000000 )  
               a(3) = (   0.000006   0.000000   0.209053 )  

     reciprocal axes: (cart. coord. in units 2 pi/alat)
               b(1) = (  1.000000  0.000000 -0.000031 )  
               b(2) = (  0.000000  2.486406  0.000000 )  
               b(3) = ( -0.000154  0.000000  4.783483 )  


     PseudoPot. # 1 for C  read from file:
     ./C.pbe-van_bm.upf
     MD5 check sum: 1a69bf6b8db32088f5b2163dbdb77a27
     Pseudo is Ultrasoft, Zval =  4.0
     Generated by new atomic code, or converted to UPF format
     Using radial grid of  721 points,  4 beta functions with: 
                l(1) =   0
                l(2) =   0
                l(3) =   1
                l(4) =   1
     Q(r) pseudized with  8 coefficients,  rinner =    0.800   0.800   0.800


     atomic species   valence    mass     pseudopotential
        C              4.00    12.00000     C ( 1.00)

     No symmetry found



   Cartesian axes

     site n.     atom                  positions (alat units)
         1           C   tau(   1) = (   0.7500010   0.2010934   0.1306704  )
         2           C   tau(   2) = (  -0.0000002   0.0000000   0.0261274  )
         3           C   tau(   3) = (   0.2500070   0.2010934   0.1306539  )
         4           C   tau(   4) = (   0.5000028   0.0000000   0.0261433  )
         5           C   tau(   5) = (   0.2500070   0.0000000   0.1306706  )
         6           C   tau(   6) = (   0.5000018   0.2010934   0.0261606  )
         7           C   tau(   7) = (   0.7500000   0.0000000   0.1306863  )
         8           C   tau(   8) = (  -0.0000012   0.2010934   0.0261443  )

     number of k points=    28  Marzari-Vanderbilt smearing, width (Ry)=  0.0200
                       cart. coord. in units 2pi/alat
        k(    1) = (   0.0000000   0.0000000   0.0000000), wk =   0.0416667
        k(    2) = (  -0.0000257   0.0000000   0.7972472), wk =   0.0833333
        k(    3) = (  -0.0000513   0.0000000   1.5944944), wk =   0.0833333
        k(    4) = (   0.0000770   0.0000000  -2.3917416), wk =   0.0416667
        k(    5) = (   0.0000000   0.6216016   0.0000000), wk =   0.0833333
        k(    6) = (  -0.0000257   0.6216016   0.7972472), wk =   0.0833333
        k(    7) = (  -0.0000513   0.6216016   1.5944944), wk =   0.0833333
        k(    8) = (   0.0000770   0.6216016  -2.3917416), wk =   0.0833333
        k(    9) = (   0.0000513   0.6216016  -1.5944944), wk =   0.0833333
        k(   10) = (   0.0000257   0.6216016  -0.7972472), wk =   0.0833333
        k(   11) = (   0.0000000  -1.2432032   0.0000000), wk =   0.0416667
        k(   12) = (  -0.0000257  -1.2432032   0.7972472), wk =   0.0833333
        k(   13) = (  -0.0000513  -1.2432032   1.5944944), wk =   0.0833333
        k(   14) = (   0.0000770  -1.2432032  -2.3917416), wk =   0.0416667
        k(   15) = (  -0.5000000   0.0000000   0.0000154), wk =   0.0416667
        k(   16) = (  -0.5000257   0.0000000   0.7972626), wk =   0.0833333
        k(   17) = (  -0.5000513   0.0000000   1.5945098), wk =   0.0833333
        k(   18) = (  -0.4999230   0.0000000  -2.3917262), wk =   0.0416667
        k(   19) = (  -0.5000000   0.6216016   0.0000154), wk =   0.0833333
        k(   20) = (  -0.5000257   0.6216016   0.7972626), wk =   0.0833333
        k(   21) = (  -0.5000513   0.6216016   1.5945098), wk =   0.0833333
        k(   22) = (  -0.4999230   0.6216016  -2.3917262), wk =   0.0833333
        k(   23) = (  -0.4999487   0.6216016  -1.5944790), wk =   0.0833333
        k(   24) = (  -0.4999743   0.6216016  -0.7972318), wk =   0.0833333
        k(   25) = (  -0.5000000  -1.2432032   0.0000154), wk =   0.0416667
        k(   26) = (  -0.5000257  -1.2432032   0.7972626), wk =   0.0833333
        k(   27) = (  -0.5000513  -1.2432032   1.5945098), wk =   0.0833333
        k(   28) = (  -0.4999230  -1.2432032  -2.3917262), wk =   0.0416667

     Dense  grid:    10763 G-vectors     FFT dimensions: (  64,  25,  15)

     Estimated max dynamical RAM per process >       1.49 MB

     Estimated total dynamical RAM >     142.90 MB

     Initial potential from superposition of free atoms

     starting charge   31.99968, renormalised to   32.00000
     Starting wfcs are   32 randomized atomic wfcs

     total cpu time spent up to now is        0.9 secs

     Self-consistent Calculation

     iteration #  1     ecut=    40.00 Ry     beta= 0.50
     Davidson diagonalization with overlap
     ethr =  1.00E-02,  avg # of iterations =  2.0

     Threshold (ethr) on eigenvalues was too large:
     Diagonalizing with lowered threshold

     Davidson diagonalization with overlap
     ethr =  4.97E-04,  avg # of iterations =  1.0

     total cpu time spent up to now is        3.1 secs

     total energy              =     -89.41417513 Ry
     Harris-Foulkes estimate   =     -89.46716471 Ry
     estimated scf accuracy    <       0.15725321 Ry

     iteration #  2     ecut=    40.00 Ry     beta= 0.50
     Davidson diagonalization with overlap
     ethr =  4.91E-04,  avg # of iterations =  1.0

     total cpu time spent up to now is        4.0 secs

     total energy              =     -89.41951510 Ry
     Harris-Foulkes estimate   =     -89.42318412 Ry
     estimated scf accuracy    <       0.01581173 Ry

     iteration #  3     ecut=    40.00 Ry     beta= 0.50
     Davidson diagonalization with overlap
     ethr =  4.94E-05,  avg # of iterations =  1.9

     total cpu time spent up to now is        5.2 secs

     total energy              =     -89.42141770 Ry
     Harris-Foulkes estimate   =     -89.42149754 Ry
     estimated scf accuracy    <       0.00073440 Ry

     iteration #  4     ecut=    40.00 Ry     beta= 0.50
     Davidson diagonalization with overlap
     ethr =  2.29E-06,  avg # of iterations =  4.4

     total cpu time spent up to now is        7.4 secs

     total energy              =     -89.42059959 Ry
     Harris-Foulkes estimate   =     -89.42289045 Ry
     estimated scf accuracy    <       0.02002547 Ry

     iteration #  5     ecut=    40.00 Ry     beta= 0.50
     Davidson diagonalization with overlap
     ethr =  2.29E-06,  avg # of iterations =  3.5

     total cpu time spent up to now is        9.2 secs

     total energy              =     -89.42175090 Ry
     Harris-Foulkes estimate   =     -89.42175467 Ry
     estimated scf accuracy    <       0.00001458 Ry

     iteration #  6     ecut=    40.00 Ry     beta= 0.50
     Davidson diagonalization with overlap
     ethr =  4.56E-08,  avg # of iterations =  2.4

     total cpu time spent up to now is       10.7 secs

     total energy              =     -89.42175277 Ry
     Harris-Foulkes estimate   =     -89.42175446 Ry
     estimated scf accuracy    <       0.00000586 Ry

     iteration #  7     ecut=    40.00 Ry     beta= 0.50
     Davidson diagonalization with overlap
     ethr =  1.83E-08,  avg # of iterations =  2.1

     total cpu time spent up to now is       11.9 secs

     total energy              =     -89.42175261 Ry
     Harris-Foulkes estimate   =     -89.42175473 Ry
     estimated scf accuracy    <       0.00001478 Ry

     iteration #  8     ecut=    40.00 Ry     beta= 0.50
     Davidson diagonalization with overlap
     ethr =  1.83E-08,  avg # of iterations =  1.7

     total cpu time spent up to now is       13.1 secs

     total energy              =     -89.42175374 Ry
     Harris-Foulkes estimate   =     -89.42175399 Ry
     estimated scf accuracy    <       0.00000141 Ry

     iteration #  9     ecut=    40.00 Ry     beta= 0.50
     Davidson diagonalization with overlap
     ethr =  4.40E-09,  avg # of iterations =  1.2

     total cpu time spent up to now is       14.2 secs

     total energy              =     -89.42175383 Ry
     Harris-Foulkes estimate   =     -89.42175388 Ry
     estimated scf accuracy    <       0.00000019 Ry

     iteration # 10     ecut=    40.00 Ry     beta= 0.50
     Davidson diagonalization with overlap
     ethr =  5.79E-10,  avg # of iterations =  1.8

     total cpu time spent up to now is       15.4 secs

     End of self-consistent calculation

          k = 0.0000 0.0000 0.0000 (  1337 PWs)   bands (ev):

    -7.9490  -6.1948  -6.1948  -2.5514   1.9167   2.0481   3.3506   3.3506
     3.9706   5.0914   5.5182   5.5183   8.7145   8.7146   9.6396  10.5290
    15.8344  16.8629  16.8630  21.4423

          k =-0.0000 0.0000 0.7972 (  1345 PWs)   bands (ev):

    -6.8019  -5.0680  -5.0677  -1.5439   3.2017   3.2067   4.4581   4.4584
     4.8205   6.1148   6.3372   6.3375   9.7908   9.7918  10.0764  11.7165
    16.5018  17.5919  17.5927  19.0542

          k =-0.0001 0.0000 1.5945 (  1364 PWs)   bands (ev):

    -3.3889  -1.7305  -1.7298   1.4286   6.3390   6.9672   7.2165   7.3622
     7.3627   8.5154   8.5159   8.6118  10.0960  11.0210  11.3933  11.3944
    12.6729  12.6749  13.3839  15.0859

          k = 0.0001 0.0000-2.3917 (  1346 PWs)   bands (ev):

     2.0996   2.0997   2.8697   2.8703   4.8595   4.8607   6.7503   6.7506
     9.5036   9.5038   9.5427   9.5433  10.2606  10.2609  10.2746  10.2751
    12.5587  12.5596  14.9608  14.9633

          k = 0.0000 0.6216 0.0000 (  1365 PWs)   bands (ev):

    -7.2572  -5.5172  -5.5171  -1.9531  -1.8063  -0.2210  -0.2210   2.6306
     2.6857   8.2458   9.0285   9.3643   9.3644   9.8727   9.8728  13.1866
    15.3007  15.3007  16.4479  20.3057

          k =-0.0000 0.6216 0.7972 (  1341 PWs)   bands (ev):

    -6.1132  -4.3938  -4.3934  -0.9463  -0.6990   0.8598   0.8601   3.6156
     3.9718   9.4814   9.8286  10.4398  10.4408  10.6830  10.6831  13.4308
    16.0149  16.0156  17.1049  19.2665

          k =-0.0001 0.6216 1.5945 (  1339 PWs)   bands (ev):

    -2.7116  -1.0686  -1.0679   2.0245   2.5168   3.9644   3.9650   6.3657
     7.7160  10.5662  11.3792  11.6953  11.6957  11.8189  11.8199  12.2912
    13.0291  13.3256  13.3275  13.7049

          k = 0.0001 0.6216-2.3917 (  1350 PWs)   bands (ev):

     2.7686   2.7687   3.5884   3.5890   5.3173   5.3185   7.1994   7.1997
     7.3965   7.3967   8.4333   8.4341   8.5257   8.5262  10.0132  10.0133
    13.2602  13.2611  15.5960  15.5985

          k = 0.0001 0.6216-1.5945 (  1339 PWs)   bands (ev):

    -2.7116  -1.0686  -1.0679   2.0245   2.5168   3.9644   3.9650   6.3657
     7.7160  10.5662  11.3792  11.6953  11.6957  11.8189  11.8199  12.2912
    13.0291  13.3256  13.3275  13.7049

          k = 0.0000 0.6216-0.7972 (  1341 PWs)   bands (ev):

    -6.1132  -4.3938  -4.3934  -0.9463  -0.6990   0.8598   0.8601   3.6156
     3.9718   9.4814   9.8286  10.4398  10.4408  10.6830  10.6831  13.4308
    16.0149  16.0156  17.1049  19.2665

          k = 0.0000-1.2432 0.0000 (  1340 PWs)   bands (ev):

    -5.1935  -5.1934  -3.5019  -3.5018  -3.5018  -3.5017  -0.1817  -0.1816
     4.9241   4.9243  11.0698  11.0700  11.0701  11.0703  15.9097  15.9102
    17.8006  17.8007  17.8012  17.8012

          k =-0.0000-1.2432 0.7972 (  1346 PWs)   bands (ev):

    -4.0609  -4.0608  -2.3918  -2.3917  -2.3914  -2.3913   0.8188   0.8189
     6.1960   6.1961  12.1399  12.1402  12.1408  12.1411  16.2705  16.2711
    17.5177  17.5180  17.5183  17.5185

          k =-0.0001-1.2432 1.5945 (  1330 PWs)   bands (ev):

    -0.7092  -0.7091   0.8775   0.8776   0.8781   0.8782   3.7491   3.7492
     9.8821   9.8823  11.7410  11.7413  12.6447  12.6450  12.6454  12.6457
    13.9442  13.9446  15.1968  15.1983

          k = 0.0001-1.2432-2.3917 (  1344 PWs)   bands (ev):

     4.6734   4.6736   4.6743   4.6745   5.6441   5.6443   5.6447   5.6449
     6.6186   6.6188   6.6196   6.6198   8.4585   8.4589   8.4601   8.4601
    15.2576  15.2589  15.2598  15.2604

          k =-0.5000 0.0000 0.0000 (  1332 PWs)   bands (ev):

    -7.5047  -7.5044  -4.1615  -4.1613   2.3991   2.3993   4.3428   4.3431
     4.3588   4.3591   4.5140   4.5141   7.4220   7.4222  13.3333  13.3337
    13.3392  13.3395  20.0331  20.0334

          k =-0.5000 0.0000 0.7973 (  1354 PWs)   bands (ev):

    -6.3620  -6.3617  -3.0761  -3.0757   3.5412   3.5415   5.2015   5.2018
     5.5353   5.5361   5.5684   5.5687   8.1828   8.1833  14.1857  14.1865
    14.2066  14.2076  19.3234  19.3240

          k =-0.5001 0.0000 1.5945 (  1344 PWs)   bands (ev):

    -2.9656  -2.9651   0.1187   0.1195   6.6211   6.6214   7.5477   7.5481
     8.2153   8.2157   8.9746   8.9760   9.9732   9.9738  10.4386  10.4391
    12.6691  12.6702  15.8256  15.8274

          k =-0.4999 0.0000-2.3917 (  1372 PWs)   bands (ev):

     2.4035   2.4036   2.4040   2.4040   5.8087   5.8088   5.8099   5.8100
     9.5233   9.5233   9.5237   9.5238  10.2669  10.2670  10.2673  10.2674
    13.7774  13.7775  13.7795  13.7795

          k =-0.5000 0.6216 0.0000 (  1352 PWs)   bands (ev):

    -6.8160  -6.8157  -3.5119  -3.5117  -1.3987  -1.3984   1.4920   1.4922
     5.0504   5.0506   9.2949   9.2951   9.4527   9.4529  13.2281  13.2283
    13.9352  13.9355  18.6304  18.6308

          k =-0.5000 0.6216 0.7973 (  1338 PWs)   bands (ev):

    -5.6763  -5.6760  -2.4304  -2.4299  -0.2974  -0.2971   2.5287   2.5290
     6.2422   6.2430  10.0862  10.0865  10.5449  10.5453  13.6340  13.6342
    14.8089  14.8099  19.2920  19.2926

          k =-0.5001 0.6216 1.5945 (  1336 PWs)   bands (ev):

    -2.2917  -2.2913   0.7528   0.7535   2.8926   2.8930   5.4598   5.4605
     9.6789   9.6804  10.8969  10.8975  11.4725  11.4728  11.9540  11.9542
    13.0343  13.0353  14.7628  14.7637

          k =-0.4999 0.6216-2.3917 (  1336 PWs)   bands (ev):

     3.0835   3.0836   3.0840   3.0840   6.2851   6.2851   6.2862   6.2863
     7.6847   7.6848   7.6852   7.6852   9.4876   9.4876   9.4882   9.4883
    14.4384  14.4385  14.4405  14.4405

          k =-0.4999 0.6216-1.5945 (  1336 PWs)   bands (ev):

    -2.2917  -2.2913   0.7528   0.7535   2.8926   2.8930   5.4598   5.4605
     9.6789   9.6804  10.8969  10.8975  11.4725  11.4728  11.9540  11.9542
    13.0343  13.0353  14.7628  14.7637

          k =-0.5000 0.6216-0.7972 (  1338 PWs)   bands (ev):

    -5.6763  -5.6760  -2.4304  -2.4299  -0.2974  -0.2971   2.5287   2.5290
     6.2422   6.2430  10.0862  10.0865  10.5449  10.5453  13.6340  13.6342
    14.8089  14.8099  19.2915  19.2922

          k =-0.5000-1.2432 0.0000 (  1356 PWs)   bands (ev):

    -4.7629  -4.7628  -4.7626  -4.7625  -1.5897  -1.5896  -1.5895  -1.5894
     7.0782   7.0784   7.0785   7.0787  14.8705  14.8708  14.8709  14.8712
    17.3736  17.3739  17.3740  17.3743

          k =-0.5000-1.2432 0.7973 (  1352 PWs)   bands (ev):

    -3.6351  -3.6350  -3.6348  -3.6347  -0.5227  -0.5226  -0.5222  -0.5221
     8.2646   8.2648   8.2654   8.2656  15.6214  15.6218  15.6219  15.6224
    17.6096  17.6100  17.6100  17.6105

          k =-0.5001-1.2432 1.5945 (  1330 PWs)   bands (ev):

    -0.3019  -0.3018  -0.3015  -0.3014   2.6003   2.6004   2.6010   2.6012
    11.5632  11.5635  11.5645  11.5648  12.1267  12.1270  12.1272  12.1275
    13.5155  13.5158  13.5162  13.5165

          k =-0.4999-1.2432-2.3917 (  1336 PWs)   bands (ev):

     5.0074   5.0076   5.0076   5.0078   5.0084   5.0086   5.0086   5.0088
     7.6446   7.6447   7.6449   7.6450   7.6461   7.6462   7.6463   7.6464
    16.2942  16.2955  16.2963  16.2969

     the Fermi energy is    13.3942 ev

!    total energy              =     -89.42175385 Ry
     Harris-Foulkes estimate   =     -89.42175385 Ry
     estimated scf accuracy    <          5.1E-09 Ry

     The total energy is the sum of the following terms:

     one-electron contribution =      38.85078799 Ry
     hartree contribution      =       4.43520317 Ry
     xc contribution           =     -27.25050938 Ry
     ewald contribution        =    -105.45515629 Ry
     smearing contrib. (-TS)   =      -0.00207934 Ry

     convergence has been achieved in  10 iterations

     Forces acting on atoms (cartesian axes, Ry/au):

     atom    1 type  1   force =     0.00000608   -0.00000046    0.00000268
     atom    2 type  1   force =     0.00000350   -0.00000060    0.00007305
     atom    3 type  1   force =     0.00000421    0.00000026    0.00000598
     atom    4 type  1   force =    -0.00000088    0.00000015    0.00007579
     atom    5 type  1   force =    -0.00000481    0.00000012   -0.00007166
     atom    6 type  1   force =    -0.00000577   -0.00000037   -0.00000926
     atom    7 type  1   force =    -0.00000147    0.00000026   -0.00006891
     atom    8 type  1   force =    -0.00000086    0.00000064   -0.00000767

     Total force =     0.000146     Total SCF correction =     0.000193
     SCF correction compared to forces is large: reduce conv_thr to get better values


     Computing stress (Cartesian axis) and pressure

          total   stress  (Ry/bohr**3)                   (kbar)     P=       75.61
  -0.00033660  -0.00000000   0.00000204          -49.52       -0.00        0.30
  -0.00000000  -0.00160449  -0.00000000           -0.00     -236.03       -0.00
   0.00000204  -0.00000000   0.00348307            0.30       -0.00      512.38


     BFGS Geometry Optimization

     number of scf cycles    =   1
     number of bfgs steps    =   0

     enthalpy new            =     -89.4217324411 Ry

     new trust radius        =       0.3090188166 bohr
     new conv_thr            =       0.0000000100 Ry

     new unit-cell volume =    325.78486 a.u.^3 (    48.27633 Ang^3 )
     density =      3.30207 g/cm^3

CELL_PARAMETERS (bohr)
  15.398397063  -0.000000635   0.001336615
  -0.000000255   5.995064166  -0.000000335
   0.000264953  -0.000000174   3.529080373

ATOMIC_POSITIONS (crystal)
C             0.7499973913        0.4999999257        0.6249448261
C            -0.0000007746       -0.0000000961        0.1250025006
C             0.2500032714        0.5000000412        0.6249438424
C             0.5000019431        0.0000000247        0.1250023456
C             0.2500026901        0.0000000200        0.6249999259
C             0.5000006287        0.4999999402        0.1250591488
C             0.7499959057        0.0000000419        0.6249987744
C            -0.0000020557        0.5000001024        0.1250586363



     Writing output data file ./pp.save/
     NEW-OLD atomic charge density approx. for the potential
     extrapolated charge   33.07272, renormalised to   32.00000

     total cpu time spent up to now is       15.7 secs

     Self-consistent Calculation

     iteration #  1     ecut=    40.00 Ry     beta= 0.50
     Davidson diagonalization with overlap
     ethr =  1.00E-06,  avg # of iterations =  7.9

     total cpu time spent up to now is       20.5 secs

     total energy              =     -89.47494945 Ry
     Harris-Foulkes estimate   =     -90.36660621 Ry
     estimated scf accuracy    <       0.01160217 Ry

     iteration #  2     ecut=    40.00 Ry     beta= 0.50
     Davidson diagonalization with overlap
     ethr =  3.63E-05,  avg # of iterations =  2.0

     total cpu time spent up to now is       22.2 secs

     total energy              =     -89.47715093 Ry
     Harris-Foulkes estimate   =     -89.47795134 Ry
     estimated scf accuracy    <       0.00207111 Ry

     iteration #  3     ecut=    40.00 Ry     beta= 0.50
     Davidson diagonalization with overlap
     ethr =  6.47E-06,  avg # of iterations =  1.8

     total cpu time spent up to now is       23.7 secs

     total energy              =     -89.47716704 Ry
     Harris-Foulkes estimate   =     -89.47728605 Ry
     estimated scf accuracy    <       0.00024863 Ry

     iteration #  4     ecut=    40.00 Ry     beta= 0.50
     Davidson diagonalization with overlap
     ethr =  7.77E-07,  avg # of iterations =  4.3

     total cpu time spent up to now is       26.6 secs

     total energy              =     -89.47705699 Ry
     Harris-Foulkes estimate   =     -89.47742704 Ry
     estimated scf accuracy    <       0.00217927 Ry

     iteration #  5     ecut=    40.00 Ry     beta= 0.50
     Davidson diagonalization with overlap
     ethr =  7.77E-07,  avg # of iterations =  3.5

     total cpu time spent up to now is       29.2 secs

     total energy              =     -89.47723705 Ry
     Harris-Foulkes estimate   =     -89.47723694 Ry
     estimated scf accuracy    <       0.00000187 Ry

     iteration #  6     ecut=    40.00 Ry     beta= 0.50
     Davidson diagonalization with overlap
     ethr =  5.83E-09,  avg # of iterations =  2.9

     total cpu time spent up to now is       31.8 secs

     total energy              =     -89.47723770 Ry
     Harris-Foulkes estimate   =     -89.47723784 Ry
     estimated scf accuracy    <       0.00000060 Ry

     iteration #  7     ecut=    40.00 Ry     beta= 0.50
     Davidson diagonalization with overlap
     ethr =  1.87E-09,  avg # of iterations =  2.0

     total cpu time spent up to now is       33.9 secs

     total energy              =     -89.47723780 Ry
     Harris-Foulkes estimate   =     -89.47723781 Ry
     estimated scf accuracy    <       0.00000007 Ry

     iteration #  8     ecut=    40.00 Ry     beta= 0.50
     Davidson diagonalization with overlap
     ethr =  2.18E-10,  avg # of iterations =  2.8

     total cpu time spent up to now is       36.7 secs

     total energy              =     -89.47723780 Ry
     Harris-Foulkes estimate   =     -89.47723782 Ry
     estimated scf accuracy    <       0.00000014 Ry

     iteration #  9     ecut=    40.00 Ry     beta= 0.50
     Davidson diagonalization with overlap
     ethr =  2.18E-10,  avg # of iterations =  2.0

     total cpu time spent up to now is       39.0 secs

     End of self-consistent calculation

          k = 0.0000 0.0000 0.0000 (  1337 PWs)   bands (ev):

    -8.0895  -6.2978  -6.2978  -2.5252   1.7600   1.9252   3.1777   3.1777
     4.8161   5.4824   7.0268   7.0268   8.6433   8.6434  11.4809  11.5470
    15.5594  17.9851  17.9852  22.0588

          k =-0.0001 0.0000 0.7334 (  1345 PWs)   bands (ev):

    -7.1052  -5.3294  -5.3286  -1.6522   2.8009   2.8266   3.9913   3.9919
     5.5217   6.2256   7.7459   7.7466   9.4669   9.4693  11.8598  12.5026
    14.9776  15.7641  16.1810  16.1834

          k =-0.0001 0.0000 1.4668 (  1364 PWs)   bands (ev):

    -4.1676  -2.4444  -2.4428   0.9499   5.1072   5.9299   6.0159   6.0170
     7.0820   7.2787   8.3665   8.6148   8.6169   9.7168   9.7180  11.1010
    11.8276  11.8318  12.6420  14.7947

          k = 0.0002-0.0000-2.2002 (  1346 PWs)   bands (ev):

     0.6569   0.6573   2.1284   2.1314   2.4473   2.4487   5.2913   5.2913
     7.3419   7.3423   7.3748   7.3761  10.5754  10.5769  11.3799  11.3802
    11.4641  11.4651  13.3661  13.3719

          k = 0.0000 0.6476 0.0000 (  1365 PWs)   bands (ev):

    -7.3506  -5.5755  -5.5755  -1.9045  -1.6108  -0.0362  -0.0362   2.6095
     2.6945   8.8453   9.3531   9.3532  10.2552  10.8267  10.8267  14.7141
    16.2533  16.3113  16.3114  20.7004

          k =-0.0001 0.6476 0.7334 (  1341 PWs)   bands (ev):

    -6.3702  -4.6120  -4.6111  -1.0360  -0.6840   0.8591   0.8598   3.4801
     3.6723   9.8568  10.1675  10.1699  10.7889  11.3538  11.3539  14.5450
    15.5452  16.4529  16.7093  16.7654

          k =-0.0001 0.6476 1.4668 (  1339 PWs)   bands (ev):

    -3.4478  -1.7457  -1.7442   1.5398   1.9953   3.4009   3.4023   5.5574
     6.7606   7.9432   9.1968   9.1987  11.4224  11.4232  11.5070  11.6031
    12.1336  12.5778  12.5819  12.7552

          k = 0.0002 0.6476-2.2002 (  1350 PWs)   bands (ev):

     1.3263   1.3267   2.6402   2.6431   3.2699   3.2713   5.7507   5.7512
     5.8967   5.8968   6.1290   6.1309   9.1450   9.1462  10.1544  10.1548
    11.3674  11.3690  14.0944  14.1001

          k = 0.0001 0.6476-1.4668 (  1339 PWs)   bands (ev):

    -3.4478  -1.7457  -1.7442   1.5398   1.9953   3.4009   3.4023   5.5574
     6.7606   7.9432   9.1968   9.1987  11.4224  11.4232  11.5070  11.6032
    12.1336  12.5778  12.5819  12.7552

          k = 0.0001 0.6476-0.7334 (  1341 PWs)   bands (ev):

    -6.3702  -4.6120  -4.6111  -1.0360  -0.6839   0.8591   0.8598   3.4801
     3.6723   9.8568  10.1675  10.1699  10.7889  11.3538  11.3539  14.5450
    15.5452  16.4529  16.7093  16.7654

          k =-0.0000-1.2952-0.0000 (  1340 PWs)   bands (ev):

    -5.1560  -5.1559  -3.4406  -3.4405  -3.4405  -3.4404  -0.0865  -0.0863
     5.0942   5.0944  11.2429  11.2431  11.2432  11.2434  17.3897  17.3904
    18.1830  18.1836  19.4535  19.4542

          k =-0.0001-1.2952 0.7334 (  1346 PWs)   bands (ev):

    -4.1911  -4.1910  -2.4962  -2.4961  -2.4954  -2.4953   0.7602   0.7603
     6.1430   6.1432  12.0017  12.0020  12.0039  12.0042  16.6569  16.6574
    16.8182  16.8189  17.3290  17.3298

          k =-0.0001-1.2952 1.4668 (  1330 PWs)   bands (ev):

    -1.3328  -1.3326   0.2882   0.2884   0.2898   0.2899   3.2082   3.2084
     9.1773   9.1775   9.8280   9.8283  10.6952  10.6956  10.6966  10.6970
    12.6514  12.6518  14.7145  14.7148

          k = 0.0002-1.2952-2.2002 (  1344 PWs)   bands (ev):

     3.1977   3.1979   3.1980   3.1986   4.0959   4.0961   4.0984   4.0986
     5.6549   5.6552   5.6562   5.6565   7.6663   7.6664   7.6668   7.6674
    13.6440  13.6457  13.6459  13.6469

          k =-0.5042-0.0000 0.0000 (  1332 PWs)   bands (ev):

    -7.6360  -7.6357  -4.2109  -4.2107   2.2644   2.2646   4.2544   4.2546
     4.2787   4.2787   5.8698   5.8702   8.9281   8.9284  13.1806  13.1810
    14.6397  14.6399  20.8506  20.8509

          k =-0.5043 0.0000 0.7334 (  1354 PWs)   bands (ev):

    -6.6552  -6.6547  -3.2750  -3.2739   3.1244   3.1249   5.0232   5.0237
     5.2279   5.2299   6.6071   6.6075   9.6136   9.6146  13.6889  13.6910
    15.2626  15.2643  15.3006  15.3021

          k =-0.5044 0.0000 1.4668 (  1344 PWs)   bands (ev):

    -3.7290  -3.7281  -0.4938  -0.4917   5.3604   5.3611   6.7499   6.7508
     7.4085   7.4096   8.3016   8.3028   8.7080   8.7087  10.1517  10.1546
    11.3018  11.3032  14.4064  14.4109

          k =-0.5041-0.0000-2.2001 (  1372 PWs)   bands (ev):

     1.0706   1.0707   1.0719   1.0720   4.0755   4.0756   4.0781   4.0781
     7.3586   7.3586   7.3595   7.3596  11.4205  11.4207  11.4213  11.4214
    12.0143  12.0144  12.0192  12.0193

          k =-0.5042 0.6476 0.0000 (  1352 PWs)   bands (ev):

    -6.9007  -6.9004  -3.5229  -3.5227  -1.2042  -1.2039   1.6312   1.6313
     5.0263   5.0266  10.0188  10.0191  10.4719  10.4721  13.8517  13.8520
    14.7185  14.7187  19.2343  19.2347

          k =-0.5043 0.6476 0.7334 (  1338 PWs)   bands (ev):

    -5.9239  -5.9234  -2.5931  -2.5920  -0.2844  -0.2839   2.4737   2.4745
     5.9966   5.9985  10.8487  10.8495  10.9870  10.9873  14.3456  14.3476
    14.7956  14.7958  15.8582  15.8596

          k =-0.5044 0.6476 1.4668 (  1336 PWs)   bands (ev):

    -3.0138  -3.0129   0.1629   0.1649   2.3641   2.3649   4.7849   4.7864
     8.0223   8.0232   9.1028   9.1041  10.6935  10.6962  11.4813  11.4820
    11.5164  11.5166  14.7436  14.7453

          k =-0.5041 0.6476-2.2001 (  1336 PWs)   bands (ev):

     1.7277   1.7278   1.7291   1.7291   4.7338   4.7338   4.7362   4.7363
     5.9216   5.9216   5.9229   5.9229   9.6436   9.6438   9.6449   9.6450
    12.7649  12.7650  12.7696  12.7697

          k =-0.5041 0.6476-1.4667 (  1336 PWs)   bands (ev):

    -3.0138  -3.0129   0.1629   0.1649   2.3641   2.3649   4.7849   4.7864
     8.0223   8.0232   9.1028   9.1041  10.6935  10.6962  11.4813  11.4820
    11.5164  11.5166  14.7436  14.7453

          k =-0.5042 0.6476-0.7333 (  1338 PWs)   bands (ev):

    -5.9239  -5.9234  -2.5931  -2.5920  -0.2844  -0.2839   2.4737   2.4745
     5.9966   5.9985  10.8487  10.8495  10.9870  10.9873  14.3456  14.3476
    14.7956  14.7958  15.8582  15.8596

          k =-0.5042-1.2952 0.0000 (  1356 PWs)   bands (ev):

    -4.7192  -4.7191  -4.7189  -4.7188  -1.5056  -1.5054  -1.5054  -1.5053
     7.2502   7.2504   7.2504   7.2507  15.2547  15.2549  15.2551  15.2555
    18.6851  18.6854  18.6858  18.6860

          k =-0.5043-1.2952 0.7334 (  1352 PWs)   bands (ev):

    -3.7586  -3.7585  -3.7581  -3.7580  -0.6003  -0.6001  -0.5993  -0.5991
     8.2024   8.2026   8.2042   8.2045  15.5243  15.5249  15.5253  15.5259
    16.8514  16.8519  16.8525  16.8530

          k =-0.5044-1.2952 1.4668 (  1330 PWs)   bands (ev):

    -0.9164  -0.9163  -0.9156  -0.9155   2.0435   2.0437   2.0454   2.0455
     9.7254   9.7257   9.7260   9.7263  11.4134  11.4137  11.4149  11.4152
    11.9470  11.9474  11.9490  11.9494

          k =-0.5041-1.2952-2.2001 (  1336 PWs)   bands (ev):

     3.5322   3.5323   3.5323   3.5324   3.5336   3.5336   3.5339   3.5339
     6.7001   6.7002   6.7002   6.7004   6.7020   6.7021   6.7023   6.7025
    14.8937  14.8948  14.8979  14.8981

     the Fermi energy is    12.5308 ev

!    total energy              =     -89.47723781 Ry
     Harris-Foulkes estimate   =     -89.47723781 Ry
     estimated scf accuracy    <          2.6E-09 Ry

     The total energy is the sum of the following terms:

     one-electron contribution =      37.26376076 Ry
     hartree contribution      =       4.49203945 Ry
     xc contribution           =     -27.04596891 Ry
     ewald contribution        =    -104.18684777 Ry
     smearing contrib. (-TS)   =      -0.00022133 Ry

     convergence has been achieved in   9 iterations

     Forces acting on atoms (cartesian axes, Ry/au):

     atom    1 type  1   force =     0.00000481    0.00000032    0.00001251
     atom    2 type  1   force =     0.00000516    0.00000050    0.00003833
     atom    3 type  1   force =    -0.00000184   -0.00000006    0.00001392
     atom    4 type  1   force =    -0.00000352   -0.00000016    0.00003864
     atom    5 type  1   force =    -0.00000546    0.00000000   -0.00003784
     atom    6 type  1   force =    -0.00000525    0.00000015   -0.00001479
     atom    7 type  1   force =     0.00000254   -0.00000027   -0.00003649
     atom    8 type  1   force =     0.00000355   -0.00000047   -0.00001427

     Total force =     0.000081     Total SCF correction =     0.000102
     SCF correction compared to forces is large: reduce conv_thr to get better values


     Computing stress (Cartesian axis) and pressure

          total   stress  (Ry/bohr**3)                   (kbar)     P=      -77.52
  -0.00093941   0.00000000   0.00000229         -138.19        0.00        0.34
   0.00000000   0.00079201   0.00000001            0.00      116.51        0.00
   0.00000229   0.00000001  -0.00143349            0.34        0.00     -210.87


     number of scf cycles    =   2
     number of bfgs steps    =   1

     enthalpy old            =     -89.4217324411 Ry
     enthalpy new            =     -89.4772156659 Ry

     CASE: enthalpy_new < enthalpy_old

     new trust radius        =       0.0684563625 bohr
     new conv_thr            =            1.0E-10 Ry

     new unit-cell volume =    318.23272 a.u.^3 (    47.15722 Ang^3 )
     density =      3.38043 g/cm^3

CELL_PARAMETERS (bohr)
  15.118892714   0.000000141   0.002047165
   0.000000059   6.079643408   0.000000301
   0.000400214   0.000000123   3.462156901

ATOMIC_POSITIONS (crystal)
C             0.7499976299        0.4999999572        0.6249478744
C            -0.0000005277       -0.0000000457        0.1250127383
C             0.2500031993        0.5000000363        0.6249472775
C             0.5000017790        0.0000000084        0.1250126967
C             0.2500024255        0.0000000211        0.6249898248
C             0.5000003710        0.4999999546        0.1250554589
C             0.7499960181        0.0000000134        0.6249890348
C            -0.0000018951        0.5000000545        0.1250550945



     Writing output data file ./pp.save/
     NEW-OLD atomic charge density approx. for the potential
     extrapolated charge   31.24060, renormalised to   32.00000

     total cpu time spent up to now is       39.1 secs

     Self-consistent Calculation

     iteration #  1     ecut=    40.00 Ry     beta= 0.50
     Davidson diagonalization with overlap
     ethr =  1.00E-06,  avg # of iterations =  6.1

     total cpu time spent up to now is       45.5 secs

     total energy              =     -89.48728921 Ry
     Harris-Foulkes estimate   =     -88.84645227 Ry
     estimated scf accuracy    <       0.00091444 Ry

     iteration #  2     ecut=    40.00 Ry     beta= 0.50
     Davidson diagonalization with overlap
     ethr =  2.86E-06,  avg # of iterations =  2.6

     total cpu time spent up to now is       49.1 secs

     total energy              =     -89.48833530 Ry
     Harris-Foulkes estimate   =     -89.48844584 Ry
     estimated scf accuracy    <       0.00036624 Ry

     iteration #  3     ecut=    40.00 Ry     beta= 0.50
     Davidson diagonalization with overlap
     ethr =  1.14E-06,  avg # of iterations =  1.2

     total cpu time spent up to now is       51.4 secs

     total energy              =     -89.48829157 Ry
     Harris-Foulkes estimate   =     -89.48835139 Ry
     estimated scf accuracy    <       0.00012850 Ry

     iteration #  4     ecut=    40.00 Ry     beta= 0.50
     Davidson diagonalization with overlap
     ethr =  4.02E-07,  avg # of iterations =  3.2

     total cpu time spent up to now is       55.3 secs

     total energy              =     -89.48821194 Ry
     Harris-Foulkes estimate   =     -89.48841030 Ry
     estimated scf accuracy    <       0.00129188 Ry

     iteration #  5     ecut=    40.00 Ry     beta= 0.50
     Davidson diagonalization with overlap
     ethr =  4.02E-07,  avg # of iterations =  2.9

     total cpu time spent up to now is       59.2 secs

     total energy              =     -89.48830904 Ry
     Harris-Foulkes estimate   =     -89.48830955 Ry
     estimated scf accuracy    <       0.00000177 Ry

     iteration #  6     ecut=    40.00 Ry     beta= 0.50
     Davidson diagonalization with overlap
     ethr =  5.55E-09,  avg # of iterations =  2.5

     total cpu time spent up to now is       63.0 secs

     total energy              =     -89.48830943 Ry
     Harris-Foulkes estimate   =     -89.48830947 Ry
     estimated scf accuracy    <       0.00000011 Ry

     iteration #  7     ecut=    40.00 Ry     beta= 0.50
     Davidson diagonalization with overlap
     ethr =  3.30E-10,  avg # of iterations =  2.8

     total cpu time spent up to now is       67.3 secs

     total energy              =     -89.48830944 Ry
     Harris-Foulkes estimate   =     -89.48830949 Ry
     estimated scf accuracy    <       0.00000027 Ry

     iteration #  8     ecut=    40.00 Ry     beta= 0.50
     Davidson diagonalization with overlap
     ethr =  3.30E-10,  avg # of iterations =  2.0

     total cpu time spent up to now is       70.8 secs

     total energy              =     -89.48830947 Ry
     Harris-Foulkes estimate   =     -89.48830947 Ry
     estimated scf accuracy    <       0.00000004 Ry

     iteration #  9     ecut=    40.00 Ry     beta= 0.50
     Davidson diagonalization with overlap
     ethr =  1.32E-10,  avg # of iterations =  1.1

     total cpu time spent up to now is       73.7 secs

     total energy              =     -89.48830947 Ry
     Harris-Foulkes estimate   =     -89.48830947 Ry
     estimated scf accuracy    <          7.5E-09 Ry

     iteration # 10     ecut=    40.00 Ry     beta= 0.50
     Davidson diagonalization with overlap
     ethr =  2.34E-11,  avg # of iterations =  2.1

     total cpu time spent up to now is       77.5 secs

     total energy              =     -89.48830947 Ry
     Harris-Foulkes estimate   =     -89.48830947 Ry
     estimated scf accuracy    <          6.2E-10 Ry

     iteration # 11     ecut=    40.00 Ry     beta= 0.50
     Davidson diagonalization with overlap
     ethr =  1.93E-12,  avg # of iterations =  2.4

     total cpu time spent up to now is       82.9 secs

     End of self-consistent calculation

          k = 0.0000 0.0000 0.0000 (  1337 PWs)   bands (ev):

    -7.9297  -6.0484  -6.0484  -1.9337   1.9556   2.1284   3.5116   3.5116
     5.0544   5.3710   6.6682   6.6682   9.3209   9.3209  11.2707  11.4779
    16.5924  18.2266  18.2267  22.6224

          k =-0.0001-0.0000 0.7476 (  1345 PWs)   bands (ev):

    -6.9074  -5.0420  -5.0406  -1.0330   3.0722   3.0739   4.3953   4.3963
     5.8289   6.1408   7.4198   7.4208  10.1878  10.1918  11.8536  12.2823
    16.0277  16.8171  17.2916  17.2956

          k =-0.0002-0.0000 1.4951 (  1364 PWs)   bands (ev):

    -3.8555  -2.0434  -2.0408   1.6577   5.5972   6.3278   6.6282   6.6301
     7.8655   8.0048   8.0579   9.4669   9.4706   9.4717   9.4735  12.0976
    12.5858  12.6092  12.6162  15.1535

          k = 0.0003 0.0000-2.2427 (  1346 PWs)   bands (ev):

     1.1689   1.1692   2.7419   2.7442   3.0051   3.0101   6.0897   6.0899
     8.1289   8.1294   8.1721   8.1744  11.1882  11.1886  11.2335  11.2352
    11.2629  11.2647  14.2586  14.2681

          k =-0.0000 0.6386-0.0000 (  1365 PWs)   bands (ev):

    -7.2054  -5.3392  -5.3392  -1.5440  -1.3262   0.1417   0.1417   2.7751
     3.2113   8.7485   9.9615   9.9940   9.9941  10.7093  10.7093  14.7300
    16.6107  16.6107  17.2479  21.3902

          k =-0.0001 0.6386 0.7476 (  1341 PWs)   bands (ev):

    -6.1866  -4.3371  -4.3358  -0.5718  -0.4288   1.0843   1.0855   3.8880
     4.0408   9.8113  10.5768  10.8535  10.8575  11.3074  11.3077  14.6365
    16.5335  17.1110  17.1138  17.4668

          k =-0.0002 0.6386 1.4951 (  1339 PWs)   bands (ev):

    -3.1483  -1.3548  -1.3522   2.2436   2.2525   3.7832   3.7855   6.2742
     7.1283   8.6202  10.0061  10.0095  11.5928  11.6190  11.6204  12.3294
    12.5433  12.8652  13.3224  13.3292

          k = 0.0003 0.6386-2.2427 (  1350 PWs)   bands (ev):

     1.8397   1.8401   3.5051   3.5099   3.5319   3.5342   6.3793   6.3798
     6.6425   6.6427   6.9317   6.9349   9.1203   9.1222  10.3505  10.3509
    11.9947  11.9964  14.9502  14.9597

          k = 0.0002 0.6386-1.4951 (  1339 PWs)   bands (ev):

    -3.1483  -1.3548  -1.3522   2.2436   2.2525   3.7832   3.7855   6.2742
     7.1283   8.6202  10.0061  10.0095  11.5928  11.6191  11.6204  12.3294
    12.5433  12.8652  13.3224  13.3292

          k = 0.0001 0.6386-0.7476 (  1341 PWs)   bands (ev):

    -6.1866  -4.3371  -4.3358  -0.5718  -0.4288   1.0843   1.0855   3.8880
     4.0408   9.8112  10.5768  10.8535  10.8575  11.3074  11.3077  14.6365
    16.5335  17.1110  17.1138  17.4668

          k = 0.0000-1.2771 0.0000 (  1340 PWs)   bands (ev):

    -5.0500  -5.0500  -3.2379  -3.2379  -3.2378  -3.2378   0.4580   0.4581
     5.1667   5.1669  11.7349  11.7351  11.7352  11.7354  17.0572  17.0578
    19.0600  19.0605  19.2499  19.2505

          k =-0.0001-1.2771 0.7476 (  1346 PWs)   bands (ev):

    -4.0451  -4.0450  -2.2529  -2.2528  -2.2516  -2.2515   1.3376   1.3377
     6.2657   6.2659  12.5445  12.5449  12.5481  12.5484  16.8727  16.8734
    17.3090  17.3096  17.7889  17.7897

          k =-0.0002-1.2771 1.4951 (  1330 PWs)   bands (ev):

    -1.0639  -1.0638   0.6580   0.6582   0.6605   0.6607   3.9062   3.9064
     9.4521   9.4524  10.3448  10.3451  11.3383  11.3387  11.3409  11.3412
    13.3344  13.3348  15.3456  15.3458

          k = 0.0003-1.2771-2.2427 (  1344 PWs)   bands (ev):

     3.7333   3.7335   3.7336   3.7341   4.9300   4.9302   4.9343   4.9345
     5.8151   5.8153   5.8173   5.8175   8.2330   8.2331   8.2335   8.2339
    14.1769  14.1782  14.1789  14.1797

          k =-0.5136 0.0000 0.0001 (  1332 PWs)   bands (ev):

    -7.4547  -7.4544  -3.8267  -3.8266   2.5006   2.5008   4.6928   4.6931
     4.7525   4.7525   5.4591   5.4594   8.6580   8.6582  14.0836  14.0840
    14.6724  14.6727  21.3075  21.3078

          k =-0.5137-0.0000 0.7476 (  1354 PWs)   bands (ev):

    -6.4359  -6.4352  -2.8530  -2.8511   3.4308   3.4314   5.5645   5.5654
     5.7067   5.7099   6.2277   6.2283   9.3812   9.3828  14.6323  14.6357
    15.3111  15.3137  16.3656  16.3680

          k =-0.5138-0.0000 1.4952 (  1344 PWs)   bands (ev):

    -3.3958  -3.3944   0.0405   0.0439   5.8826   5.8838   7.4761   7.4776
     8.2063   8.2084   8.4149   8.4159   8.8526   8.8541  11.0814  11.0862
    11.1424  11.1447  15.3631  15.3704

          k =-0.5133 0.0000-2.2426 (  1372 PWs)   bands (ev):

     1.6017   1.6018   1.6036   1.6037   4.7632   4.7632   4.7678   4.7678
     8.1506   8.1506   8.1522   8.1523  11.2242  11.2244  11.2255  11.2256
    12.8027  12.8028  12.8106  12.8107

          k =-0.5136 0.6386 0.0001 (  1352 PWs)   bands (ev):

    -6.7336  -6.7334  -3.1490  -3.1488  -1.1110  -1.1107   1.9737   1.9738
     5.4304   5.4306  10.0434  10.0436  10.2174  10.2176  14.7110  14.7114
    14.7420  14.7422  19.8070  19.8073

          k =-0.5137 0.6386 0.7476 (  1338 PWs)   bands (ev):

    -5.7185  -5.7178  -2.1808  -2.1790  -0.1455  -0.1448   2.8654   2.8668
     6.4418   6.4450  10.8144  10.8149  10.9226  10.9240  14.8922  14.8926
    15.2480  15.2513  16.8575  16.8598

          k =-0.5138 0.6386 1.4952 (  1336 PWs)   bands (ev):

    -2.6927  -2.6913   0.6920   0.6953   2.6505   2.6518   5.3477   5.3502
     8.7743   8.7760   9.6200   9.6218  11.5744  11.5789  11.6045  11.6057
    11.7296  11.7300  14.9886  14.9914

          k =-0.5133 0.6386-2.2426 (  1336 PWs)   bands (ev):

     2.2695   2.2696   2.2714   2.2715   5.3652   5.3653   5.3695   5.3695
     6.6126   6.6126   6.6146   6.6146   9.7507   9.7509   9.7529   9.7530
    13.5171  13.5172  13.5249  13.5250

          k =-0.5134 0.6386-1.4951 (  1336 PWs)   bands (ev):

    -2.6927  -2.6913   0.6920   0.6953   2.6505   2.6518   5.3477   5.3502
     8.7743   8.7760   9.6200   9.6218  11.5744  11.5789  11.6045  11.6057
    11.7296  11.7300  14.9886  14.9914

          k =-0.5135 0.6386-0.7475 (  1338 PWs)   bands (ev):

    -5.7185  -5.7178  -2.1808  -2.1790  -0.1455  -0.1448   2.8654   2.8668
     6.4418   6.4450  10.8144  10.8149  10.9226  10.9240  14.8922  14.8926
    15.2480  15.2513  16.8575  16.8598

          k =-0.5136-1.2771 0.0001 (  1356 PWs)   bands (ev):

    -4.5901  -4.5900  -4.5898  -4.5897  -1.1563  -1.1562  -1.1561  -1.1560
     7.5434   7.5436   7.5436   7.5438  15.6930  15.6932  15.6935  15.6938
    18.6867  18.6870  18.6873  18.6876

          k =-0.5137-1.2771 0.7476 (  1352 PWs)   bands (ev):

    -3.5894  -3.5893  -3.5887  -3.5886  -0.2100  -0.2099  -0.2083  -0.2082
     8.5398   8.5400   8.5428   8.5430  15.9824  15.9829  15.9836  15.9841
    17.4547  17.4553  17.4564  17.4569

          k =-0.5138-1.2771 1.4952 (  1330 PWs)   bands (ev):

    -0.6238  -0.6237  -0.6225  -0.6224   2.5670   2.5671   2.5701   2.5702
    10.3149  10.3152  10.3158  10.3161  11.8297  11.8300  11.8322  11.8324
    12.6175  12.6179  12.6208  12.6212

          k =-0.5133-1.2771-2.2426 (  1336 PWs)   bands (ev):

     4.1226   4.1226   4.1227   4.1228   4.1246   4.1246   4.1248   4.1249
     7.1444   7.1445   7.1446   7.1447   7.1478   7.1479   7.1481   7.1482
    15.5333  15.5341  15.5393  15.5395

     the Fermi energy is    12.8912 ev

!    total energy              =     -89.48830947 Ry
     Harris-Foulkes estimate   =     -89.48830947 Ry
     estimated scf accuracy    <          5.0E-11 Ry

     The total energy is the sum of the following terms:

     one-electron contribution =      38.94283331 Ry
     hartree contribution      =       4.13967048 Ry
     xc contribution           =     -27.12566371 Ry
     ewald contribution        =    -105.44745612 Ry
     smearing contrib. (-TS)   =       0.00230657 Ry

     convergence has been achieved in  11 iterations

     Forces acting on atoms (cartesian axes, Ry/au):

     atom    1 type  1   force =     0.00000639    0.00000011   -0.00000524
     atom    2 type  1   force =     0.00000445    0.00000018    0.00004681
     atom    3 type  1   force =     0.00000264   -0.00000004   -0.00000426
     atom    4 type  1   force =     0.00000366   -0.00000005    0.00004715
     atom    5 type  1   force =    -0.00000689   -0.00000002   -0.00004671
     atom    6 type  1   force =    -0.00000453    0.00000009    0.00000391
     atom    7 type  1   force =    -0.00000188   -0.00000010   -0.00004579
     atom    8 type  1   force =    -0.00000383   -0.00000018    0.00000412

     Total force =     0.000095     Total SCF correction =     0.000026
     SCF correction compared to forces is large: reduce conv_thr to get better values


     Computing stress (Cartesian axis) and pressure

          total   stress  (Ry/bohr**3)                   (kbar)     P=      -55.67
  -0.00054302  -0.00000000   0.00000605          -79.88       -0.00        0.89
  -0.00000000  -0.00035834  -0.00000000           -0.00      -52.71       -0.00
   0.00000605  -0.00000000  -0.00023389            0.89       -0.00      -34.41


     number of scf cycles    =   3
     number of bfgs steps    =   2

     enthalpy old            =     -89.4772156659 Ry
     enthalpy new            =     -89.4882878368 Ry

     CASE: enthalpy_new < enthalpy_old

     new trust radius        =       0.0815623986 bohr
     new conv_thr            =            1.0E-10 Ry

     new unit-cell volume =    305.39078 a.u.^3 (    45.25424 Ang^3 )
     density =      3.52258 g/cm^3

CELL_PARAMETERS (bohr)
  14.773276597   0.000000028   0.005212157
   0.000000014   6.025433290  -0.000000311
   0.001006393  -0.000000168   3.430764091

ATOMIC_POSITIONS (crystal)
C             0.7499981909        0.4999999850        0.6249466820
C            -0.0000001159        0.0000000001        0.1250348159
C             0.2500033869        0.5000000288        0.6249466125
C             0.5000020075       -0.0000000055        0.1250349663
C             0.2500018216        0.0000000186        0.6249678393
C             0.4999999455        0.4999999743        0.1250558829
C             0.7499959045       -0.0000000116        0.6249675430
C            -0.0000021409        0.5000000104        0.1250556583



     Writing output data file ./pp.save/
     NEW-OLD atomic charge density approx. for the potential
     extrapolated charge   30.65439, renormalised to   32.00000

     total cpu time spent up to now is       83.2 secs

     Self-consistent Calculation

     iteration #  1     ecut=    40.00 Ry     beta= 0.50
     Davidson diagonalization with overlap
     ethr =  1.00E-06,  avg # of iterations =  4.6

     total cpu time spent up to now is       92.3 secs

     total energy              =     -89.48647706 Ry
     Harris-Foulkes estimate   =     -88.31714040 Ry
     estimated scf accuracy    <       0.00212116 Ry

     iteration #  2     ecut=    40.00 Ry     beta= 0.50
     Davidson diagonalization with overlap
     ethr =  6.63E-06,  avg # of iterations =  2.8

     total cpu time spent up to now is       98.3 secs

     total energy              =     -89.48980269 Ry
     Harris-Foulkes estimate   =     -89.48999782 Ry
     estimated scf accuracy    <       0.00067789 Ry

     iteration #  3     ecut=    40.00 Ry     beta= 0.50
     Davidson diagonalization with overlap
     ethr =  2.12E-06,  avg # of iterations =  1.1

     total cpu time spent up to now is      101.7 secs

     total energy              =     -89.48972934 Ry
     Harris-Foulkes estimate   =     -89.48982910 Ry
     estimated scf accuracy    <       0.00021488 Ry

     iteration #  4     ecut=    40.00 Ry     beta= 0.50
     Davidson diagonalization with overlap
     ethr =  6.71E-07,  avg # of iterations =  2.0

     total cpu time spent up to now is      106.3 secs

     total energy              =     -89.48973261 Ry
     Harris-Foulkes estimate   =     -89.48977487 Ry
     estimated scf accuracy    <       0.00025016 Ry

     iteration #  5     ecut=    40.00 Ry     beta= 0.50
     Davidson diagonalization with overlap
     ethr =  6.71E-07,  avg # of iterations =  1.3

     total cpu time spent up to now is      110.1 secs

     total energy              =     -89.48975273 Ry
     Harris-Foulkes estimate   =     -89.48975288 Ry
     estimated scf accuracy    <       0.00000089 Ry

     iteration #  6     ecut=    40.00 Ry     beta= 0.50
     Davidson diagonalization with overlap
     ethr =  2.79E-09,  avg # of iterations =  3.8

     total cpu time spent up to now is      117.7 secs

     total energy              =     -89.48975425 Ry
     Harris-Foulkes estimate   =     -89.48975463 Ry
     estimated scf accuracy    <       0.00000351 Ry

     iteration #  7     ecut=    40.00 Ry     beta= 0.50
     Davidson diagonalization with overlap
     ethr =  2.79E-09,  avg # of iterations =  1.8

     total cpu time spent up to now is      122.2 secs

     total energy              =     -89.48975433 Ry
     Harris-Foulkes estimate   =     -89.48975438 Ry
     estimated scf accuracy    <       0.00000044 Ry

     iteration #  8     ecut=    40.00 Ry     beta= 0.50
     Davidson diagonalization with overlap
     ethr =  1.38E-09,  avg # of iterations =  1.2

     total cpu time spent up to now is      126.1 secs

     total energy              =     -89.48975433 Ry
     Harris-Foulkes estimate   =     -89.48975435 Ry
     estimated scf accuracy    <       0.00000012 Ry

     iteration #  9     ecut=    40.00 Ry     beta= 0.50
     Davidson diagonalization with overlap
     ethr =  3.75E-10,  avg # of iterations =  2.0

     total cpu time spent up to now is      131.0 secs

     total energy              =     -89.48975435 Ry
     Harris-Foulkes estimate   =     -89.48975435 Ry
     estimated scf accuracy    <          2.7E-09 Ry

     iteration # 10     ecut=    40.00 Ry     beta= 0.50
     Davidson diagonalization with overlap
     ethr =  8.29E-12,  avg # of iterations =  3.0

     total cpu time spent up to now is      137.5 secs

     total energy              =     -89.48975435 Ry
     Harris-Foulkes estimate   =     -89.48975435 Ry
     estimated scf accuracy    <          4.1E-09 Ry

     iteration # 11     ecut=    40.00 Ry     beta= 0.50
     Davidson diagonalization with overlap
     ethr =  8.29E-12,  avg # of iterations =  1.0

     total cpu time spent up to now is      141.5 secs

     total energy              =     -89.48975435 Ry
     Harris-Foulkes estimate   =     -89.48975435 Ry
     estimated scf accuracy    <          2.3E-09 Ry

     iteration # 12     ecut=    40.00 Ry     beta= 0.50
     Davidson diagonalization with overlap
     ethr =  7.21E-12,  avg # of iterations =  1.4

     total cpu time spent up to now is      146.0 secs

     End of self-consistent calculation

          k = 0.0000 0.0000 0.0000 (  1337 PWs)   bands (ev):

    -7.7292  -5.7397  -5.7396  -1.2060   2.2537   2.4628   3.9631   3.9631
     5.5589   6.0149   7.2375   7.2375  10.2001  10.2002  11.7526  12.5857
    17.8581  19.3621  19.3622  23.9642

          k =-0.0003 0.0000 0.7544 (  1345 PWs)   bands (ev):

    -6.6887  -4.7155  -4.7119  -0.2964   3.3957   3.4357   4.8703   4.8731
     6.3405   6.7986   7.9982   8.0010  11.0725  11.0833  12.7922  12.9115
    16.7087  18.0225  18.0831  18.0943

          k =-0.0005 0.0000 1.5088 (  1364 PWs)   bands (ev):

    -3.5823  -1.6624  -1.6555   2.4206   6.0456   6.7316   7.1717   7.1769
     8.5082   8.5411   8.5879  10.0606  10.0655  10.0948  10.1054  12.9872
    13.4318  13.5054  13.5245  15.7547

          k = 0.0008-0.0000-2.2632 (  1346 PWs)   bands (ev):

     1.5331   1.5334   3.0745   3.0806   3.6359   3.6497   6.9069   6.9072
     8.7226   8.7234   8.7738   8.7801  11.7578  11.7583  11.7985  11.8010
    11.8156  11.8202  15.1718  15.1976

          k =-0.0000 0.6443 0.0000 (  1365 PWs)   bands (ev):

    -6.9924  -5.0174  -5.0174  -1.2364  -0.5964   0.5584   0.5584   3.0888
     3.9255   9.1784  10.5228  10.8730  10.8730  11.3154  11.3154  15.7795
    17.7167  17.7168  18.5234  22.7203

          k =-0.0003 0.6443 0.7544 (  1341 PWs)   bands (ev):

    -5.9552  -3.9973  -3.9937  -0.2434   0.3106   1.5209   1.5241   4.2271
     4.7676  10.2680  11.1499  11.7380  11.7487  11.9235  11.9241  15.5872
    17.2232  18.1858  18.1931  18.6826

          k =-0.0005 0.6443 1.5088 (  1339 PWs)   bands (ev):

    -2.8612  -0.9590  -0.9521   2.6448   3.0139   4.2821   4.2883   7.0253
     7.5483   9.1270  10.6372  10.6470  12.2096  12.2199  12.2236  12.9650
    13.4085  13.4237  14.2280  14.2465

          k = 0.0008 0.6443-2.2632 (  1350 PWs)   bands (ev):

     2.2240   2.2244   3.8816   3.8876   4.1389   4.1522   6.9109   6.9116
     7.4494   7.4496   7.5589   7.5679   9.6053   9.6106  11.0229  11.0235
    12.5771  12.5796  15.8767  15.9022

          k = 0.0005 0.6443-1.5088 (  1339 PWs)   bands (ev):

    -2.8612  -0.9590  -0.9521   2.6448   3.0139   4.2821   4.2883   7.0253
     7.5483   9.1270  10.6372  10.6470  12.2096  12.2199  12.2236  12.9650
    13.4085  13.4237  14.2280  14.2465

          k = 0.0003 0.6443-0.7544 (  1341 PWs)   bands (ev):

    -5.9552  -3.9973  -3.9937  -0.2434   0.3106   1.5209   1.5241   4.2271
     4.7676  10.2680  11.1499  11.7380  11.7487  11.9235  11.9241  15.5872
    17.2232  18.1858  18.1931  18.6826

          k = 0.0000-1.2886-0.0000 (  1340 PWs)   bands (ev):

    -4.8000  -4.7999  -2.8782  -2.8782  -2.8782  -2.8781   1.1900   1.1901
     5.5263   5.5264  12.5739  12.5742  12.5742  12.5745  17.7700  17.7706
    20.1981  20.1987  20.3611  20.3617

          k =-0.0003-1.2886 0.7544 (  1346 PWs)   bands (ev):

    -3.7758  -3.7757  -1.8744  -1.8743  -1.8709  -1.8708   2.0810   2.0812
     6.6512   6.6514  13.3841  13.3845  13.3934  13.3938  17.6051  17.6057
    18.0513  18.0518  18.6323  18.6335

          k =-0.0005-1.2886 1.5088 (  1330 PWs)   bands (ev):

    -0.7359  -0.7358   1.0961   1.0962   1.1029   1.1030   4.6860   4.6862
     9.9200   9.9202  10.8738  10.8741  11.9674  11.9677  11.9745  11.9749
    14.1428  14.1433  16.2775  16.2778

          k = 0.0008-1.2886-2.2632 (  1344 PWs)   bands (ev):

     4.1775   4.1775   4.1779   4.1783   5.5680   5.5682   5.5798   5.5800
     6.2163   6.2165   6.2221   6.2223   9.0009   9.0010   9.0011   9.0015
    14.8123  14.8131  14.8151  14.8153

          k =-0.5256 0.0000 0.0002 (  1332 PWs)   bands (ev):

    -7.2280  -7.2277  -3.3594  -3.3592   2.8651   2.8653   5.2932   5.2935
     5.3261   5.3262   5.9799   5.9802   9.3031   9.3033  15.2156  15.2159
    15.6485  15.6487  22.5883  22.5886

          k =-0.5258 0.0000 0.7546 (  1354 PWs)   bands (ev):

    -6.1915  -6.1896  -2.3672  -2.3622   3.8215   3.8232   6.1562   6.1586
     6.3179   6.3268   6.7556   6.7570  10.0483  10.0525  15.7398  15.7491
    16.2420  16.2489  17.0730  17.0796

          k =-0.5261 0.0000 1.5090 (  1344 PWs)   bands (ev):

    -3.0972  -3.0936   0.5812   0.5905   6.3558   6.3590   8.1072   8.1116
     8.8012   8.8042   8.9583   8.9609   9.4480   9.4548  11.8245  11.8307
    11.8426  11.8563  16.3583  16.3785

          k =-0.5248-0.0000-2.2631 (  1372 PWs)   bands (ev):

     1.9848   1.9849   1.9896   1.9896   5.4134   5.4134   5.4264   5.4264
     8.7479   8.7479   8.7523   8.7524  11.7853  11.7855  11.7885  11.7887
    13.5637  13.5638  13.5854  13.5855

          k =-0.5256 0.6443 0.0002 (  1352 PWs)   bands (ev):

    -6.4943  -6.4940  -2.6681  -2.6679  -0.7767  -0.7764   2.5374   2.5375
     6.0337   6.0339  10.6024  10.6027  10.7944  10.7946  15.7717  15.7719
    15.8404  15.8408  21.0633  21.0637

          k =-0.5258 0.6443 0.7546 (  1338 PWs)   bands (ev):

    -5.4612  -5.4593  -1.6813  -1.6764   0.2091   0.2109   3.4480   3.4519
     7.0568   7.0655  11.4017  11.4028  11.4977  11.5013  15.8546  15.8555
    16.3512  16.3600  17.5728  17.5792

          k =-0.5261 0.6443 1.5090 (  1336 PWs)   bands (ev):

    -2.3799  -2.3764   1.2484   1.2575   3.0684   3.0718   5.9853   5.9924
     9.3607   9.3635  10.2351  10.2419  12.2174  12.2205  12.3113  12.3123
    12.3347  12.3476  15.7327  15.7399

          k =-0.5248 0.6443-2.2631 (  1336 PWs)   bands (ev):

     2.6766   2.6767   2.6815   2.6816   6.0101   6.0101   6.0223   6.0223
     7.1761   7.1762   7.1814   7.1815  10.3375  10.3377  10.3435  10.3436
    14.2891  14.2892  14.3103  14.3104

          k =-0.5250 0.6443-1.5087 (  1336 PWs)   bands (ev):

    -2.3799  -2.3764   1.2484   1.2575   3.0684   3.0718   5.9853   5.9924
     9.3607   9.3635  10.2351  10.2419  12.2174  12.2205  12.3113  12.3123
    12.3347  12.3476  15.7327  15.7399

          k =-0.5253 0.6443-0.7543 (  1338 PWs)   bands (ev):

    -5.4612  -5.4593  -1.6813  -1.6764   0.2091   0.2109   3.4480   3.4519
     7.0568   7.0655  11.4017  11.4028  11.4977  11.5013  15.8546  15.8555
    16.3512  16.3600  17.5728  17.5792

          k =-0.5256-1.2886 0.0002 (  1356 PWs)   bands (ev):

    -4.3135  -4.3134  -4.3132  -4.3131  -0.6385  -0.6384  -0.6384  -0.6382
     8.1492   8.1494   8.1494   8.1497  16.5864  16.5866  16.5869  16.5872
    19.7302  19.7305  19.7307  19.7310

          k =-0.5258-1.2886 0.7546 (  1352 PWs)   bands (ev):

    -3.2940  -3.2939  -3.2922  -3.2921   0.3267   0.3269   0.3314   0.3315
     9.1588   9.1590   9.1670   9.1672  16.8135  16.8141  16.8157  16.8162
    18.2196  18.2201  18.2242  18.2247

          k =-0.5261-1.2886 1.5090 (  1330 PWs)   bands (ev):

    -0.2698  -0.2697  -0.2663  -0.2662   3.1641   3.1642   3.1727   3.1728
    10.8830  10.8833  10.8851  10.8854  12.4982  12.4984  12.5052  12.5055
    13.3487  13.3490  13.3578  13.3582

          k =-0.5248-1.2886-2.2631 (  1336 PWs)   bands (ev):

     4.6000   4.6000   4.6001   4.6002   4.6052   4.6052   4.6054   4.6054
     7.7678   7.7679   7.7680   7.7681   7.7777   7.7778   7.7779   7.7780
    16.3353  16.3354  16.3357  16.3358

     the Fermi energy is    13.6546 ev

!    total energy              =     -89.48975435 Ry
     Harris-Foulkes estimate   =     -89.48975435 Ry
     estimated scf accuracy    <          4.2E-11 Ry

     The total energy is the sum of the following terms:

     one-electron contribution =      41.11061121 Ry
     hartree contribution      =       3.84570073 Ry
     xc contribution           =     -27.35074202 Ry
     ewald contribution        =    -107.09685566 Ry
     smearing contrib. (-TS)   =       0.00153140 Ry

     convergence has been achieved in  12 iterations

     Forces acting on atoms (cartesian axes, Ry/au):

     atom    1 type  1   force =     0.00001466    0.00000001   -0.00001948
     atom    2 type  1   force =     0.00001296    0.00000002    0.00004062
     atom    3 type  1   force =     0.00000910   -0.00000005   -0.00001923
     atom    4 type  1   force =     0.00001001   -0.00000003    0.00004069
     atom    5 type  1   force =    -0.00001505   -0.00000000   -0.00004090
     atom    6 type  1   force =    -0.00001310    0.00000006    0.00001946
     atom    7 type  1   force =    -0.00000830    0.00000000   -0.00004061
     atom    8 type  1   force =    -0.00001028   -0.00000002    0.00001946

     Total force =     0.000096     Total SCF correction =     0.000024
     SCF correction compared to forces is large: reduce conv_thr to get better values


     Computing stress (Cartesian axis) and pressure

          total   stress  (Ry/bohr**3)                   (kbar)     P=       57.56
  -0.00006809  -0.00000000   0.00002839          -10.02       -0.00        4.18
  -0.00000000   0.00071615   0.00000001           -0.00      105.35        0.00
   0.00002839   0.00000001   0.00052580            4.18        0.00       77.35


     number of scf cycles    =   4
     number of bfgs steps    =   3

     enthalpy old            =     -89.4882878368 Ry
     enthalpy new            =     -89.4897335871 Ry

     CASE: enthalpy_new < enthalpy_old

     new trust radius        =       0.0269651024 bohr
     new conv_thr            =            1.0E-10 Ry

     new unit-cell volume =    307.37557 a.u.^3 (    45.54836 Ang^3 )
     density =      3.49983 g/cm^3

CELL_PARAMETERS (bohr)
  14.659508851  -0.000000114   0.013603895
  -0.000000042   6.071077811  -0.000000034
   0.002596250  -0.000000036   3.453698579

ATOMIC_POSITIONS (crystal)
C             0.7499989571        0.4999999928        0.6249418387
C             0.0000005286        0.0000000128        0.1250504222
C             0.2500038266        0.5000000218        0.6249419790
C             0.5000025044       -0.0000000115        0.1250506502
C             0.2500010269        0.0000000175        0.6249521953
C             0.4999992909        0.4999999857        0.1250604960
C             0.7499955197       -0.0000000170        0.6249521074
C            -0.0000026543        0.4999999980        0.1250603113



     Writing output data file ./pp.save/
     NEW-OLD atomic charge density approx. for the potential
     extrapolated charge   32.20663, renormalised to   32.00000

     total cpu time spent up to now is      146.2 secs

     Self-consistent Calculation

     iteration #  1     ecut=    40.00 Ry     beta= 0.50
     Davidson diagonalization with overlap
     ethr =  1.00E-06,  avg # of iterations =  5.7

     total cpu time spent up to now is      158.9 secs

     total energy              =     -89.49100870 Ry
     Harris-Foulkes estimate   =     -89.67293402 Ry
     estimated scf accuracy    <       0.00028712 Ry

     iteration #  2     ecut=    40.00 Ry     beta= 0.50
     Davidson diagonalization with overlap
     ethr =  8.97E-07,  avg # of iterations =  2.0

     total cpu time spent up to now is      165.1 secs

     total energy              =     -89.49112304 Ry
     Harris-Foulkes estimate   =     -89.49112308 Ry
     estimated scf accuracy    <       0.00000780 Ry

     iteration #  3     ecut=    40.00 Ry     beta= 0.50
     Davidson diagonalization with overlap
     ethr =  2.44E-08,  avg # of iterations =  3.9

     total cpu time spent up to now is      173.4 secs

     total energy              =     -89.49112409 Ry
     Harris-Foulkes estimate   =     -89.49112476 Ry
     estimated scf accuracy    <       0.00000229 Ry

     iteration #  4     ecut=    40.00 Ry     beta= 0.50
     Davidson diagonalization with overlap
     ethr =  7.15E-09,  avg # of iterations =  3.0

     total cpu time spent up to now is      180.9 secs

     total energy              =     -89.49112305 Ry
     Harris-Foulkes estimate   =     -89.49112705 Ry
     estimated scf accuracy    <       0.00002374 Ry

     iteration #  5     ecut=    40.00 Ry     beta= 0.50
     Davidson diagonalization with overlap
     ethr =  7.15E-09,  avg # of iterations =  2.8

     total cpu time spent up to now is      188.0 secs

     total energy              =     -89.49112505 Ry
     Harris-Foulkes estimate   =     -89.49112504 Ry
     estimated scf accuracy    <       0.00000003 Ry

     iteration #  6     ecut=    40.00 Ry     beta= 0.50
     Davidson diagonalization with overlap
     ethr =  8.39E-11,  avg # of iterations =  3.0

     total cpu time spent up to now is      196.4 secs

     total energy              =     -89.49112507 Ry
     Harris-Foulkes estimate   =     -89.49112507 Ry
     estimated scf accuracy    <       0.00000001 Ry

     iteration #  7     ecut=    40.00 Ry     beta= 0.50
     Davidson diagonalization with overlap
     ethr =  3.20E-11,  avg # of iterations =  2.0

     total cpu time spent up to now is      202.7 secs

     total energy              =     -89.49112507 Ry
     Harris-Foulkes estimate   =     -89.49112507 Ry
     estimated scf accuracy    <          2.7E-09 Ry

     iteration #  8     ecut=    40.00 Ry     beta= 0.50
     Davidson diagonalization with overlap
     ethr =  8.31E-12,  avg # of iterations =  2.4

     total cpu time spent up to now is      210.6 secs

     total energy              =     -89.49112507 Ry
     Harris-Foulkes estimate   =     -89.49112507 Ry
     estimated scf accuracy    <          3.4E-09 Ry

     iteration #  9     ecut=    40.00 Ry     beta= 0.50
     Davidson diagonalization with overlap
     ethr =  8.31E-12,  avg # of iterations =  1.6

     total cpu time spent up to now is      216.4 secs

     End of self-consistent calculation

          k = 0.0000 0.0000 0.0000 (  1337 PWs)   bands (ev):

    -7.7307  -5.7022  -5.7022  -1.0028   2.2574   2.4335   3.9889   3.9889
     5.2669   6.1399   6.9751   6.9751  10.4061  10.4061  11.5093  12.4984
    18.1286  19.3262  19.3263  21.7805

          k =-0.0007 0.0000 0.7494 (  1345 PWs)   bands (ev):

    -6.7024  -4.6925  -4.6831  -0.1059   3.3833   3.3946   4.8800   4.8873
     6.0479   6.9023   7.7339   7.7412  11.2415  11.2698  12.5351  12.8291
    16.4131  17.8391  17.8689  18.2125

          k =-0.0014 0.0000 1.4988 (  1364 PWs)   bands (ev):

    -3.6322  -1.6763  -1.6580   2.5734   5.9778   6.6739   7.1428   7.1566
     8.3019   8.3122   8.5758   9.8084   9.8211   9.9291   9.9569  12.9750
    13.3447  13.6217  13.6714  15.4629

          k = 0.0021-0.0000-2.2482 (  1346 PWs)   bands (ev):

     1.4244   1.4249   3.0526   3.0683   3.5035   3.5399   6.9889   6.9894
     8.6642   8.6652   8.7164   8.7334  11.5324  11.5330  11.6096  11.6214
    11.6877  11.6908  15.2113  15.2786

          k = 0.0000 0.6395 0.0000 (  1365 PWs)   bands (ev):

    -7.0026  -4.9883  -4.9883  -1.3037  -0.4020   0.5371   0.5371   3.0764
     4.0619   9.0263  10.2567  11.0574  11.0574  11.1241  11.1241  15.6594
    17.7270  17.7270  18.7727  22.8040

          k =-0.0007 0.6395 0.7494 (  1341 PWs)   bands (ev):

    -5.9776  -3.9827  -3.9733  -0.3229   0.4917   1.4848   1.4934   4.1986
     4.8865  10.1002  10.8911  11.7245  11.7265  11.8841  11.9120  15.4693
    16.9269  18.1865  18.2060  18.2955

          k =-0.0014 0.6395 1.4988 (  1339 PWs)   bands (ev):

    -2.9202  -0.9818  -0.9636   2.5322   3.1542   4.2114   4.2278   7.0853
     7.4745   8.9301  10.4681  10.4939  12.0191  12.0400  12.0498  12.8137
    13.1980  13.4013  14.3261  14.3744

          k = 0.0021 0.6395-2.2482 (  1350 PWs)   bands (ev):

     2.1041   2.1047   3.8454   3.8609   4.0071   4.0423   6.7728   6.7738
     7.4618   7.4858   7.5263   7.5266   9.4559   9.4695  10.9808  10.9815
    12.4508  12.4540  15.8983  15.9649

          k = 0.0014 0.6395-1.4988 (  1339 PWs)   bands (ev):

    -2.9202  -0.9818  -0.9636   2.5322   3.1542   4.2114   4.2278   7.0853
     7.4745   8.9301  10.4681  10.4939  12.0191  12.0400  12.0498  12.8137
    13.1980  13.4013  14.3261  14.3744

          k = 0.0007 0.6395-0.7494 (  1341 PWs)   bands (ev):

    -5.9776  -3.9827  -3.9733  -0.3229   0.4917   1.4848   1.4934   4.1986
     4.8865  10.1002  10.8911  11.7245  11.7265  11.8841  11.9120  15.4693
    16.9269  18.1865  18.2060  18.2955

          k =-0.0000-1.2789-0.0000 (  1340 PWs)   bands (ev):

    -4.8350  -4.8349  -2.8722  -2.8721  -2.8720  -2.8719   1.3594   1.3595
     5.4639   5.4641  12.6662  12.6665  12.6667  12.6671  17.4366  17.4371
    19.9404  19.9405  19.9410  19.9411

          k =-0.0007-1.2789 0.7494 (  1346 PWs)   bands (ev):

    -3.8232  -3.8231  -1.8831  -1.8830  -1.8739  -1.8738   2.2356   2.2357
     6.5728   6.5730  13.4296  13.4300  13.4535  13.4538  17.3287  17.3293
    17.7984  17.7989  18.4522  18.4524

          k =-0.0014-1.2789 1.4988 (  1330 PWs)   bands (ev):

    -0.8198  -0.8197   1.0496   1.0497   1.0674   1.0675   4.7914   4.7916
     9.7966   9.7968  10.6803  10.6806  11.7942  11.7945  11.8131  11.8134
    14.0759  14.0764  16.3159  16.3163

          k = 0.0021-1.2789-2.2482 (  1344 PWs)   bands (ev):

     4.0336   4.0337   4.0343   4.0346   5.4427   5.4429   5.4741   5.4742
     6.1370   6.1373   6.1520   6.1522   9.0536   9.0537   9.0537   9.0541
    14.6390  14.6396  14.6425  14.6425

          k =-0.5297-0.0000 0.0004 (  1332 PWs)   bands (ev):

    -7.2200  -7.2197  -3.2643  -3.2642   2.8496   2.8498   5.4135   5.4135
     5.4155   5.4157   5.6954   5.6957   9.0746   9.0748  15.4751  15.4754
    15.5559  15.5562  22.5939  22.5942

          k =-0.5304 0.0000 0.7498 (  1354 PWs)   bands (ev):

    -6.1971  -6.1922  -2.2865  -2.2733   3.7925   3.7968   6.2237   6.2303
     6.4127   6.4360   6.4695   6.4732   9.8202   9.8309  15.9327  15.9560
    16.1305  16.1485  16.7867  16.8043

          k =-0.5311 0.0000 1.4992 (  1344 PWs)   bands (ev):

    -3.1400  -3.1307   0.6280   0.6528   6.2969   6.3054   8.1185   8.1302
     8.6266   8.6289   8.6794   8.6862   9.4802   9.5036  11.6259  11.6423
    11.7446  11.7811  16.4196  16.4729

          k =-0.5276-0.0000-2.2478 (  1372 PWs)   bands (ev):

     1.8858   1.8859   1.8984   1.8984   5.3935   5.3935   5.4277   5.4278
     8.6889   8.6890   8.7009   8.7010  11.5686  11.5687  11.5768  11.5769
    13.5378  13.5378  13.5947  13.5948

          k =-0.5297 0.6395 0.0004 (  1352 PWs)   bands (ev):

    -6.4950  -6.4947  -2.5802  -2.5800  -0.8330  -0.8327   2.5859   2.5860
     6.1370   6.1372  10.4976  10.4978  10.5443  10.5446  15.6642  15.6643
    16.0736  16.0739  21.1382  21.1385

          k =-0.5304 0.6395 0.7498 (  1338 PWs)   bands (ev):

    -5.4755  -5.4707  -1.6079  -1.5949   0.1392   0.1437   3.4809   3.4914
     7.1322   7.1552  11.1560  11.1590  11.3651  11.3744  15.7607  15.7633
    16.5130  16.5349  17.2864  17.3034

          k =-0.5311 0.6395 1.4992 (  1336 PWs)   bands (ev):

    -2.4318  -2.4225   1.2866   1.3111   2.9643   2.9731   5.9800   5.9989
     9.1817   9.1853  10.2502  10.2722  12.0309  12.0393  12.1268  12.1290
    12.2315  12.2658  15.6112  15.6290

          k =-0.5276 0.6395-2.2478 (  1336 PWs)   bands (ev):

     2.5647   2.5647   2.5776   2.5776   5.9896   5.9897   6.0220   6.0220
     7.0497   7.0497   7.0636   7.0636  10.2424  10.2425  10.2582  10.2583
    14.2454  14.2454  14.3008  14.3009

          k =-0.5283 0.6395-1.4984 (  1336 PWs)   bands (ev):

    -2.4318  -2.4225   1.2866   1.3111   2.9643   2.9731   5.9800   5.9989
     9.1817   9.1853  10.2502  10.2722  12.0309  12.0393  12.1268  12.1290
    12.2315  12.2658  15.6112  15.6290

          k =-0.5290 0.6395-0.7490 (  1338 PWs)   bands (ev):

    -5.4755  -5.4707  -1.6079  -1.5949   0.1392   0.1437   3.4809   3.4914
     7.1322   7.1552  11.1560  11.1590  11.3651  11.3744  15.7607  15.7633
    16.5130  16.5349  17.2864  17.3034

          k =-0.5297-1.2789 0.0004 (  1356 PWs)   bands (ev):

    -4.3386  -4.3385  -4.3384  -4.3383  -0.5700  -0.5698  -0.5698  -0.5697
     8.1908   8.1910   8.1910   8.1912  16.5175  16.5177  16.5180  16.5183
    19.6506  19.6509  19.6511  19.6514

          k =-0.5304-1.2789 0.7498 (  1352 PWs)   bands (ev):

    -3.3328  -3.3328  -3.3281  -3.3280   0.3804   0.3805   0.3926   0.3928
     9.1712   9.1715   9.1928   9.1930  16.6709  16.6714  16.6742  16.6748
    17.9806  17.9811  17.9931  17.9936

          k =-0.5311-1.2789 1.4992 (  1330 PWs)   bands (ev):

    -0.3463  -0.3462  -0.3371  -0.3370   3.1801   3.1802   3.2030   3.2032
    10.6936  10.6939  10.6980  10.6983  12.4629  12.4632  12.4827  12.4830
    13.2291  13.2295  13.2536  13.2540

          k =-0.5276-1.2789-2.2478 (  1336 PWs)   bands (ev):

     4.4620   4.4620   4.4622   4.4622   4.4758   4.4758   4.4759   4.4759
     7.7365   7.7365   7.7367   7.7368   7.7627   7.7628   7.7630   7.7631
    16.2352  16.2353  16.2356  16.2356

     the Fermi energy is    13.6856 ev

!    total energy              =     -89.49112507 Ry
     Harris-Foulkes estimate   =     -89.49112507 Ry
     estimated scf accuracy    <          1.8E-11 Ry

     The total energy is the sum of the following terms:

     one-electron contribution =      41.10495556 Ry
     hartree contribution      =       3.73935078 Ry
     xc contribution           =     -27.27988529 Ry
     ewald contribution        =    -107.05734205 Ry
     smearing contrib. (-TS)   =       0.00179594 Ry

     convergence has been achieved in   9 iterations

     Forces acting on atoms (cartesian axes, Ry/au):

     atom    1 type  1   force =     0.00002063   -0.00000001   -0.00002726
     atom    2 type  1   force =     0.00001857   -0.00000004    0.00004023
     atom    3 type  1   force =     0.00001591   -0.00000003   -0.00002734
     atom    4 type  1   force =     0.00001596    0.00000001    0.00004022
     atom    5 type  1   force =    -0.00002050   -0.00000001   -0.00004055
     atom    6 type  1   force =    -0.00001943    0.00000002    0.00002762
     atom    7 type  1   force =    -0.00001437    0.00000003   -0.00004051
     atom    8 type  1   force =    -0.00001677    0.00000003    0.00002758

     Total force =     0.000110     Total SCF correction =     0.000010


     Computing stress (Cartesian axis) and pressure

          total   stress  (Ry/bohr**3)                   (kbar)     P=        9.26
   0.00018268   0.00000000   0.00006946           26.87        0.00       10.22
   0.00000000  -0.00015907   0.00000000            0.00      -23.40        0.00
   0.00006946   0.00000000   0.00016527           10.22        0.00       24.31


     number of scf cycles    =   5
     number of bfgs steps    =   4

     enthalpy old            =     -89.4897335871 Ry
     enthalpy new            =     -89.4911041736 Ry

     CASE: enthalpy_new < enthalpy_old

     new trust radius        =       0.0291021110 bohr
     new conv_thr            =            1.0E-10 Ry

     new unit-cell volume =    310.77675 a.u.^3 (    46.05236 Ang^3 )
     density =      3.46153 g/cm^3

CELL_PARAMETERS (bohr)
  14.779769860   0.000000117   0.037330195
   0.000000049   6.067508470   0.000000267
   0.006991819   0.000000107   3.465553966

ATOMIC_POSITIONS (crystal)
C             0.7499999548        0.4999999876        0.6249343374
C             0.0000014496        0.0000000018        0.1250579759
C             0.2500046309        0.5000000183        0.6249343592
C             0.5000033070       -0.0000000085        0.1250581594
C             0.2500000393        0.0000000161        0.6249445334
C             0.4999983312        0.4999999863        0.1250682436
C             0.7499947799       -0.0000000095        0.6249443679
C            -0.0000034927        0.5000000078        0.1250680232



     Writing output data file ./pp.save/
     NEW-OLD atomic charge density approx. for the potential
     extrapolated charge   32.35021, renormalised to   32.00000

     total cpu time spent up to now is      216.6 secs

     Self-consistent Calculation

     iteration #  1     ecut=    40.00 Ry     beta= 0.50
     Davidson diagonalization with overlap
     ethr =  1.00E-06,  avg # of iterations =  4.1

     total cpu time spent up to now is      228.7 secs

     total energy              =     -89.49103378 Ry
     Harris-Foulkes estimate   =     -89.79643429 Ry
     estimated scf accuracy    <       0.00009943 Ry

     iteration #  2     ecut=    40.00 Ry     beta= 0.50
     Davidson diagonalization with overlap
     ethr =  3.11E-07,  avg # of iterations =  3.6

     total cpu time spent up to now is      238.9 secs

     total energy              =     -89.49124007 Ry
     Harris-Foulkes estimate   =     -89.49125331 Ry
     estimated scf accuracy    <       0.00004934 Ry

     iteration #  3     ecut=    40.00 Ry     beta= 0.50
     Davidson diagonalization with overlap
     ethr =  1.54E-07,  avg # of iterations =  1.0

     total cpu time spent up to now is      244.0 secs

     total energy              =     -89.49123274 Ry
     Harris-Foulkes estimate   =     -89.49124143 Ry
     estimated scf accuracy    <       0.00001858 Ry

     iteration #  4     ecut=    40.00 Ry     beta= 0.50
     Davidson diagonalization with overlap
     ethr =  5.81E-08,  avg # of iterations =  2.2

     total cpu time spent up to now is      251.4 secs

     total energy              =     -89.49123245 Ry
     Harris-Foulkes estimate   =     -89.49123689 Ry
     estimated scf accuracy    <       0.00002463 Ry

     iteration #  5     ecut=    40.00 Ry     beta= 0.50
     Davidson diagonalization with overlap
     ethr =  5.81E-08,  avg # of iterations =  1.6

     total cpu time spent up to now is      257.6 secs

     total energy              =     -89.49123462 Ry
     Harris-Foulkes estimate   =     -89.49123466 Ry
     estimated scf accuracy    <       0.00000010 Ry

     iteration #  6     ecut=    40.00 Ry     beta= 0.50
     Davidson diagonalization with overlap
     ethr =  3.04E-10,  avg # of iterations =  3.7

     total cpu time spent up to now is      268.8 secs

     total energy              =     -89.49123473 Ry
     Harris-Foulkes estimate   =     -89.49123474 Ry
     estimated scf accuracy    <       0.00000006 Ry

     iteration #  7     ecut=    40.00 Ry     beta= 0.50
     Davidson diagonalization with overlap
     ethr =  1.98E-10,  avg # of iterations =  1.0

     total cpu time spent up to now is      274.4 secs

     total energy              =     -89.49123473 Ry
     Harris-Foulkes estimate   =     -89.49123473 Ry
     estimated scf accuracy    <          9.8E-09 Ry

     iteration #  8     ecut=    40.00 Ry     beta= 0.50
     Davidson diagonalization with overlap
     ethr =  3.07E-11,  avg # of iterations =  2.3

     total cpu time spent up to now is      282.1 secs

     total energy              =     -89.49123473 Ry
     Harris-Foulkes estimate   =     -89.49123473 Ry
     estimated scf accuracy    <          4.2E-10 Ry

     iteration #  9     ecut=    40.00 Ry     beta= 0.50
     Davidson diagonalization with overlap
     ethr =  1.31E-12,  avg # of iterations =  3.0

     total cpu time spent up to now is      291.5 secs

     total energy              =     -89.49123473 Ry
     Harris-Foulkes estimate   =     -89.49123473 Ry
     estimated scf accuracy    <          1.1E-09 Ry

     iteration # 10     ecut=    40.00 Ry     beta= 0.50
     Davidson diagonalization with overlap
[...]

    -1.3520  -1.3517   0.4728   0.4755   0.6744   0.6770   4.7584   4.7587
     8.2977   8.2979  10.0588  10.0594  10.2794  10.2800  12.6995  12.6998
    13.3701  13.3706  14.6862  14.6892

          k =-0.0498-1.2951-2.1763 (  1336 PWs)   bands (ev):

     2.2798   2.2800   2.2803   2.2806   5.4434   5.4436   5.4439   5.4441
     5.7064   5.7067   5.7068   5.7072   8.9338   8.9340   8.9341   8.9342
    12.6159  12.6162  12.6167  12.6172

     the Fermi energy is    13.9814 ev

!    total energy              =     -89.55530752 Ry
     Harris-Foulkes estimate   =     -89.55530752 Ry
     estimated scf accuracy    <          3.5E-11 Ry

     The total energy is the sum of the following terms:

     one-electron contribution =      39.44890943 Ry
     hartree contribution      =       4.15662734 Ry
     xc contribution           =     -27.27788163 Ry
     ewald contribution        =    -105.88145519 Ry
     smearing contrib. (-TS)   =      -0.00150747 Ry

     convergence has been achieved in  11 iterations

     Forces acting on atoms (cartesian axes, Ry/au):

     atom    1 type  1   force =     0.00563423   -0.00000005   -0.00172827
     atom    2 type  1   force =     0.00456296   -0.00000001   -0.00168614
     atom    3 type  1   force =     0.00564721    0.00000026   -0.00172813
     atom    4 type  1   force =     0.00456723    0.00000004   -0.00168479
     atom    5 type  1   force =    -0.00456041    0.00000007    0.00168874
     atom    6 type  1   force =    -0.00563886   -0.00000028    0.00172774
     atom    7 type  1   force =    -0.00456837   -0.00000005    0.00168297
     atom    8 type  1   force =    -0.00564399    0.00000002    0.00172789

     Total force =     0.015295     Total SCF correction =     0.000021


     Computing stress (Cartesian axis) and pressure

          total   stress  (Ry/bohr**3)                   (kbar)     P=      -10.67
  -0.00014254  -0.00000014   0.00028491          -20.97       -0.02       41.91
  -0.00000014   0.00138997   0.00000075           -0.02      204.47        0.11
   0.00028491   0.00000075  -0.00146508           41.91        0.11     -215.52


     number of scf cycles    =  17
     number of bfgs steps    =  16

     enthalpy old            =     -89.5422000234 Ry
     enthalpy new            =     -89.5552862867 Ry

     CASE: enthalpy_new < enthalpy_old

     new trust radius        =       0.2353019119 bohr
     new conv_thr            =       0.0000000006 Ry

     new unit-cell volume =    315.39500 a.u.^3 (    46.73672 Ang^3 )
     density =      3.41085 g/cm^3

CELL_PARAMETERS (bohr)
  15.471534464  -0.000124119   4.210056721
  -0.000021308   6.037744855  -0.000007231
   0.724729493   0.000003702   3.573554509

ATOMIC_POSITIONS (crystal)
C             0.7511132384        0.5000001125        0.6226424629
C             0.0008988782       -0.0000000233        0.1244880757
C             0.2510969319        0.4999998654        0.6226410226
C             0.5008922122        0.0000001080        0.1244933361
C             0.2490937098       -0.0000001658        0.6255146039
C             0.4988916703        0.5000000907        0.1273632059
C             0.7491141661        0.0000000715        0.6255087627
C            -0.0011018070        0.4999999410        0.1273585303



     Writing output data file ./pp.save/
     NEW-OLD atomic charge density approx. for the potential
     extrapolated charge   32.30870, renormalised to   32.00000

     total cpu time spent up to now is     2231.5 secs

     Self-consistent Calculation

     iteration #  1     ecut=    40.00 Ry     beta= 0.50
     Davidson diagonalization with overlap
     ethr =  1.00E-06,  avg # of iterations =  8.2

     total cpu time spent up to now is     2303.6 secs

     total energy              =     -89.56377256 Ry
     Harris-Foulkes estimate   =     -89.82619125 Ry
     estimated scf accuracy    <       0.00230328 Ry

     iteration #  2     ecut=    40.00 Ry     beta= 0.50
     Davidson diagonalization with overlap
     ethr =  7.20E-06,  avg # of iterations =  2.0

     total cpu time spent up to now is     2327.8 secs

     total energy              =     -89.56402153 Ry
     Harris-Foulkes estimate   =     -89.56403828 Ry
     estimated scf accuracy    <       0.00035009 Ry

     iteration #  3     ecut=    40.00 Ry     beta= 0.50
     Davidson diagonalization with overlap
     ethr =  1.09E-06,  avg # of iterations =  1.1

     total cpu time spent up to now is     2345.9 secs

     total energy              =     -89.56405256 Ry
     Harris-Foulkes estimate   =     -89.56404516 Ry
     estimated scf accuracy    <       0.00001400 Ry

     iteration #  4     ecut=    40.00 Ry     beta= 0.50
     Davidson diagonalization with overlap
     ethr =  4.38E-08,  avg # of iterations =  3.0

     total cpu time spent up to now is     2377.1 secs

     total energy              =     -89.56405480 Ry
     Harris-Foulkes estimate   =     -89.56405705 Ry
     estimated scf accuracy    <       0.00000896 Ry

     iteration #  5     ecut=    40.00 Ry     beta= 0.50
     Davidson diagonalization with overlap
     ethr =  2.80E-08,  avg # of iterations =  2.6

     total cpu time spent up to now is     2404.4 secs

     total energy              =     -89.56405628 Ry
     Harris-Foulkes estimate   =     -89.56405710 Ry
     estimated scf accuracy    <       0.00000682 Ry

     iteration #  6     ecut=    40.00 Ry     beta= 0.50
     Davidson diagonalization with overlap
     ethr =  2.13E-08,  avg # of iterations =  2.0

     total cpu time spent up to now is     2428.1 secs

     total energy              =     -89.56405694 Ry
     Harris-Foulkes estimate   =     -89.56405701 Ry
     estimated scf accuracy    <       0.00000017 Ry

     iteration #  7     ecut=    40.00 Ry     beta= 0.50
     Davidson diagonalization with overlap
     ethr =  5.23E-10,  avg # of iterations =  3.0

     total cpu time spent up to now is     2458.0 secs

     total energy              =     -89.56405697 Ry
     Harris-Foulkes estimate   =     -89.56405698 Ry
     estimated scf accuracy    <       0.00000004 Ry

     iteration #  8     ecut=    40.00 Ry     beta= 0.50
     Davidson diagonalization with overlap
     ethr =  1.11E-10,  avg # of iterations =  2.1

     total cpu time spent up to now is     2482.7 secs

     total energy              =     -89.56405697 Ry
     Harris-Foulkes estimate   =     -89.56405697 Ry
     estimated scf accuracy    <          2.1E-09 Ry

     iteration #  9     ecut=    40.00 Ry     beta= 0.50
     Davidson diagonalization with overlap
     ethr =  6.54E-12,  avg # of iterations =  3.4

     total cpu time spent up to now is     2519.7 secs

     total energy              =     -89.56405697 Ry
     Harris-Foulkes estimate   =     -89.56405697 Ry
     estimated scf accuracy    <          5.7E-09 Ry

     iteration # 10     ecut=    40.00 Ry     beta= 0.50
     Davidson diagonalization with overlap
     ethr =  6.54E-12,  avg # of iterations =  2.6

     total cpu time spent up to now is     2547.6 secs

     total energy              =     -89.56405697 Ry
     Harris-Foulkes estimate   =     -89.56405697 Ry
     estimated scf accuracy    <          5.8E-10 Ry

     iteration # 11     ecut=    40.00 Ry     beta= 0.50
     Davidson diagonalization with overlap
     ethr =  1.81E-12,  avg # of iterations =  2.0

     total cpu time spent up to now is     2572.6 secs

     End of self-consistent calculation

          k = 0.0000 0.0000 0.0000 (  1337 PWs)   bands (ev):

    -7.9361  -5.8186  -5.7983  -0.4855   1.7968   2.1244   3.8464   3.8617
     5.3302   6.3139   7.0007   7.0235  10.8634  10.8936  10.9536  13.4052
    18.8195  19.6696  19.9253  19.9625

          k =-0.2086 0.0000 0.7666 (  1345 PWs)   bands (ev):

    -6.7929  -6.0697  -3.3197  -1.2731   3.0805   3.6809   4.6509   5.6317
     6.2552   6.5825   6.8145   7.9546   8.9672  10.5338  14.1222  14.1911
    15.0807  16.0473  17.3945  17.6974

          k =-0.4172 0.0000 1.5331 (  1364 PWs)   bands (ev):

    -4.0890  -3.4372  -0.6814   1.1424   4.9553   5.4939   6.7347   6.9871
     7.3397   7.6211   8.1544   8.4427   8.5845   8.9455  11.0090  11.5777
    11.7380  12.2679  15.5336  16.4684

          k = 0.6258-0.0000-2.2997 (  1346 PWs)   bands (ev):

    -0.9669   0.9105   0.9333   1.7976   3.7675   3.7832   6.0077   6.4614
     6.5548   6.9009   7.4924   7.5069   9.4620  11.0374  12.6799  12.6961
    12.8662  13.5231  13.5518  14.5011

          k = 0.0000 0.6430-0.0000 (  1365 PWs)   bands (ev):

    -7.2045  -5.0994  -5.0792  -1.4991   0.1054   0.4482   0.4671   2.6217
     4.4230   8.5412  10.1959  11.0362  11.0556  11.5268  11.5558  16.3489
    18.3751  18.4088  19.4714  20.3118

          k =-0.2086 0.6430 0.7666 (  1341 PWs)   bands (ev):

    -6.0679  -5.3485  -2.6203  -0.6137  -0.4330   0.2282   2.6624   4.2545
     5.3879   8.6254  10.2518  10.8161  11.2148  11.4950  14.8136  14.8456
    16.0831  16.3792  16.5319  18.1476

          k =-0.4172 0.6430 1.5331 (  1339 PWs)   bands (ev):

    -3.3869  -2.7390  -0.0076   1.7810   1.9483   2.5374   4.9102   6.2844
     7.4705   7.6843   8.3204   9.3602  10.9359  11.4551  12.0143  12.0893
    12.2245  12.8156  14.6169  14.6210

          k = 0.6258 0.6430-2.2997 (  1350 PWs)   bands (ev):

    -0.3681   1.5006   1.5231   2.6191   4.0351   4.5788   4.5945   5.7113
     5.7300   6.8721   7.2371   7.6762   8.5820   8.8721  10.3863  10.4018
    12.5817  13.0363  15.3200  15.3455

          k = 0.4172 0.6430-1.5331 (  1339 PWs)   bands (ev):

    -3.3869  -2.7389  -0.0077   1.7811   1.9483   2.5373   4.9104   6.2842
     7.4704   7.6843   8.3205   9.3603  10.9359  11.4551  12.0144  12.0896
    12.2245  12.8154  14.6168  14.6210

          k = 0.2086 0.6430-0.7666 (  1341 PWs)   bands (ev):

    -6.0679  -5.3485  -2.6202  -0.6138  -0.4331   0.2283   2.6621   4.2547
     5.3880   8.6252  10.2515  10.8162  11.2146  11.4953  14.8136  14.8457
    16.0829  16.3793  16.5320  18.1476

          k =-0.0000-1.2860 0.0000 (  1340 PWs)   bands (ev):

    -5.0291  -5.0289  -3.0128  -2.9929  -2.9264  -2.9065   1.8283   1.8283
     5.0089   5.0090  12.7776  12.8037  13.1528  13.1796  17.3493  17.3494
    20.1554  20.1765  20.2461  20.2674

          k =-0.2086-1.2860 0.7666 (  1346 PWs)   bands (ev):

    -3.9160  -3.9157  -3.2123  -3.2116  -0.5646  -0.5640   1.3279   1.3281
     7.4876   7.4879  10.4761  10.4773  15.7191  15.7197  16.0440  16.0445
    16.9769  16.9778  17.9772  17.9774

          k =-0.4172-1.2860 1.5331 (  1330 PWs)   bands (ev):

    -1.3203  -1.3199  -0.6882  -0.6875   1.9478   1.9484   3.6312   3.6315
     9.5389   9.5398   9.6067   9.6069  10.2365  10.2376  11.5499  11.5511
    12.9851  12.9872  13.4853  13.4857

          k = 0.6258-1.2860-2.2997 (  1344 PWs)   bands (ev):

     1.3814   1.3818   3.1686   3.1903   3.2374   3.2588   5.0184   5.0188
     6.8792   6.8949   6.9985   7.0143   7.7492   7.7494   9.4557   9.4557
     9.8987   9.8987  16.2504  16.2794

          k =-0.5312-0.0000 0.1077 (  1332 PWs)   bands (ev):

    -7.4021  -7.4013  -3.2052  -3.2045   2.5844   2.5851   5.4466   5.4474
     5.4700   5.4704   5.7897   5.7905   9.0388   9.0396  15.9673  15.9682
    16.5486  16.5500  19.1676  19.1681

          k =-0.7398-0.0000 0.8743 (  1354 PWs)   bands (ev):

    -6.9611  -5.5689  -4.1384  -0.2901   2.9342   3.3726   4.0844   5.1156
     6.1199   6.8572   7.2116   8.3401   9.6085  11.2418  13.1076  14.0601
    14.1948  15.7882  16.3528  18.4798

          k =-0.9484-0.0000 1.6409 (  1344 PWs)   bands (ev):

    -4.2774  -2.8760  -1.5924   2.2188   4.8036   5.4470   5.9096   6.8200
     6.8714   7.9255   8.2887   8.4217   8.7901   9.3740  10.3264  11.9438
    12.6705  13.0363  14.7873  15.6180

          k = 0.0946-0.0000-2.1920 (  1372 PWs)   bands (ev):

    -0.4944  -0.4935   2.3124   2.3131   3.2677   3.2685   5.7572   5.7576
     6.4110   6.4117   8.8157   8.8160  10.5807  10.5816  11.4774  11.4780
    13.0489  13.0499  14.1201  14.1207

          k =-0.5312 0.6430 0.1077 (  1352 PWs)   bands (ev):

    -6.6734  -6.6726  -2.5127  -2.5120  -0.9996  -0.9988   2.6839   2.6845
     6.1863   6.1870  10.2774  10.2782  10.4994  10.5001  16.2758  16.2766
    17.0930  17.0944  19.8123  19.8128

          k =-0.7398 0.6430 0.8743 (  1338 PWs)   bands (ev):

    -6.2351  -4.8506  -3.4312  -0.5986   0.3433   0.6868   1.9597   4.1461
     4.8659   9.6175  10.2655  10.7129  11.4410  11.6896  13.8064  14.6757
    16.1453  16.2113  16.8306  17.0739

          k =-0.9484 0.6430 1.6408 (  1336 PWs)   bands (ev):

    -3.5742  -2.1817  -0.9083   1.7673   2.8269   3.0359   4.1616   6.2103
     6.9004   7.5676   8.6324   9.5302  10.8029  11.5021  11.8077  12.4403
    12.5796  13.1057  14.7279  15.1957

          k = 0.0946 0.6430-2.1920 (  1336 PWs)   bands (ev):

     0.1028   0.1036   3.1349   3.1356   3.8388   3.8395   4.4712   4.4720
     6.5489   6.5494   7.5547   7.5553   9.0605   9.0612  11.0808  11.0817
    12.1069  12.1072  13.9149  13.9158

          k =-0.1140 0.6430-1.4254 (  1336 PWs)   bands (ev):

    -3.5741  -2.1818  -0.9082   1.7673   2.8268   3.0361   4.1615   6.2104
     6.9006   7.5677   8.6324   9.5302  10.8029  11.5019  11.8077  12.4403
    12.5797  13.1056  14.7279  15.1958

          k =-0.3226 0.6430-0.6588 (  1338 PWs)   bands (ev):

    -6.2351  -4.8505  -3.4312  -0.5986   0.3433   0.6867   1.9599   4.1460
     4.8657   9.6177  10.2656  10.7129  11.4412  11.6894  13.8062  14.6757
    16.1453  16.2113  16.8305  17.0737

          k =-0.5312-1.2860 0.1077 (  1356 PWs)   bands (ev):

    -4.5084  -4.5080  -4.5076  -4.5072  -0.4804  -0.4800  -0.4797  -0.4794
     8.1667   8.1670   8.1674   8.1680  16.7728  16.7735  16.7737  16.7741
    20.4118  20.4132  20.4142  20.4155

          k =-0.7398-1.2860 0.8743 (  1352 PWs)   bands (ev):

    -4.0801  -4.0798  -2.7265  -2.7252  -1.3454  -1.3442   2.1633   2.1635
     6.3851   6.3853  11.9956  11.9981  15.2326  15.2356  15.5739  15.5743
    16.7561  16.7569  17.4738  17.4746

          k =-0.9484-1.2860 1.6409 (  1330 PWs)   bands (ev):

    -1.5036  -1.5033  -0.1483  -0.1469   1.0886   1.0900   4.5319   4.5320
     8.4037   8.4039   9.4814   9.4820  10.5676  10.5690  11.5846  11.5853
    13.7265  13.7266  14.0390  14.0416

          k = 0.0946-1.2860-2.1920 (  1336 PWs)   bands (ev):

     1.8428   1.8432   1.8435   1.8441   5.4290   5.4295   5.4297   5.4302
     5.5242   5.5245   5.5250   5.5250   8.8324   8.8329   8.8331   8.8334
    12.4460  12.4466  12.4470  12.4479

     the Fermi energy is    13.6555 ev

!    total energy              =     -89.56405697 Ry
     Harris-Foulkes estimate   =     -89.56405697 Ry
     estimated scf accuracy    <          1.5E-11 Ry

     The total energy is the sum of the following terms:

     one-electron contribution =      38.97574426 Ry
     hartree contribution      =       4.21153540 Ry
     xc contribution           =     -27.22276472 Ry
     ewald contribution        =    -105.52841990 Ry
     smearing contrib. (-TS)   =      -0.00015202 Ry

     convergence has been achieved in  11 iterations

     Forces acting on atoms (cartesian axes, Ry/au):

     atom    1 type  1   force =     0.01158384   -0.00000024   -0.00350765
     atom    2 type  1   force =     0.01046242   -0.00000006   -0.00337536
     atom    3 type  1   force =     0.01161320    0.00000004   -0.00351229
     atom    4 type  1   force =     0.01047075   -0.00000018   -0.00337535
     atom    5 type  1   force =    -0.01045266    0.00000026    0.00337405
     atom    6 type  1   force =    -0.01159314   -0.00000001    0.00350871
     atom    7 type  1   force =    -0.01048006    0.00000001    0.00337628
     atom    8 type  1   force =    -0.01160436    0.00000018    0.00351160

     Total force =     0.032728     Total SCF correction =     0.000007


     Computing stress (Cartesian axis) and pressure

          total   stress  (Ry/bohr**3)                   (kbar)     P=      -32.01
   0.00015959   0.00000054  -0.00036530           23.48        0.08      -53.74
   0.00000054   0.00099319  -0.00000009            0.08      146.10       -0.01
  -0.00036530  -0.00000009  -0.00180553          -53.74       -0.01     -265.60


     number of scf cycles    =  18
     number of bfgs steps    =  17

     enthalpy old            =     -89.5552862867 Ry
     enthalpy new            =     -89.5640355329 Ry

     CASE: enthalpy_new < enthalpy_old

     new trust radius        =       0.0527721214 bohr
     new conv_thr            =       0.0000000012 Ry

     new unit-cell volume =    316.43908 a.u.^3 (    46.89143 Ang^3 )
     density =      3.39959 g/cm^3

CELL_PARAMETERS (bohr)
  15.550345508   0.000043906   4.142227209
   0.000044508   6.075231253  -0.000032725
   0.687100066  -0.000016318   3.532582525

ATOMIC_POSITIONS (crystal)
C             0.7516972619        0.5000000765        0.6224814143
C             0.0014490488       -0.0000000358        0.1239751990
C             0.2516831687        0.4999998843        0.6224803426
C             0.5014432989        0.0000000843        0.1239808775
C             0.2485442408       -0.0000001274        0.6260277604
C             0.4983070199        0.5000000788        0.1275239176
C             0.7485624561        0.0000000700        0.6260209524
C            -0.0016874951        0.4999999693        0.1275195360



     Writing output data file ./pp.save/
     NEW-OLD atomic charge density approx. for the potential
     extrapolated charge   32.10558, renormalised to   32.00000

     total cpu time spent up to now is     2573.2 secs

     Self-consistent Calculation

     iteration #  1     ecut=    40.00 Ry     beta= 0.50
     Davidson diagonalization with overlap
     ethr =  1.00E-06,  avg # of iterations =  6.7

     total cpu time spent up to now is     2639.9 secs

     total energy              =     -89.57234031 Ry
     Harris-Foulkes estimate   =     -89.66217018 Ry
     estimated scf accuracy    <       0.00050523 Ry

     iteration #  2     ecut=    40.00 Ry     beta= 0.50
     Davidson diagonalization with overlap
     ethr =  1.58E-06,  avg # of iterations =  1.6

     total cpu time spent up to now is     2662.3 secs

     total energy              =     -89.57236589 Ry
     Harris-Foulkes estimate   =     -89.57238394 Ry
     estimated scf accuracy    <       0.00006989 Ry

     iteration #  3     ecut=    40.00 Ry     beta= 0.50
     Davidson diagonalization with overlap
     ethr =  2.18E-07,  avg # of iterations =  2.0

     total cpu time spent up to now is     2687.5 secs

     total energy              =     -89.57237348 Ry
     Harris-Foulkes estimate   =     -89.57237352 Ry
     estimated scf accuracy    <       0.00000181 Ry

     iteration #  4     ecut=    40.00 Ry     beta= 0.50
     Davidson diagonalization with overlap
     ethr =  5.66E-09,  avg # of iterations =  3.6

     total cpu time spent up to now is     2726.6 secs

     total energy              =     -89.57237322 Ry
     Harris-Foulkes estimate   =     -89.57237576 Ry
     estimated scf accuracy    <       0.00001431 Ry

     iteration #  5     ecut=    40.00 Ry     beta= 0.50
     Davidson diagonalization with overlap
     ethr =  5.66E-09,  avg # of iterations =  3.0

     total cpu time spent up to now is     2760.0 secs

     total energy              =     -89.57237458 Ry
     Harris-Foulkes estimate   =     -89.57237459 Ry
     estimated scf accuracy    <       0.00000039 Ry

     iteration #  6     ecut=    40.00 Ry     beta= 0.50
     Davidson diagonalization with overlap
     ethr =  1.23E-09,  avg # of iterations =  2.2

     total cpu time spent up to now is     2787.6 secs

     total energy              =     -89.57237462 Ry
     Harris-Foulkes estimate   =     -89.57237464 Ry
     estimated scf accuracy    <       0.00000004 Ry

     iteration #  7     ecut=    40.00 Ry     beta= 0.50
     Davidson diagonalization with overlap
