
     Program PWSCF v.6.5 starts on  9Jul2022 at  9:12:14 

     This program is part of the open-source Quantum ESPRESSO suite
     for quantum simulation of materials; please cite
         "P. Giannozzi et al., J. Phys.:Condens. Matter 21 395502 (2009);
         "P. Giannozzi et al., J. Phys.:Condens. Matter 29 465901 (2017);
          URL http://www.quantum-espresso.org", 
     in publications or presentations arising from this work. More details at
     http://www.quantum-espresso.org/quote

     Parallel version (MPI), running on    96 processors

     MPI processes distributed on     2 nodes
     R & G space division:  proc/nbgrp/npool/nimage =      96
     Waiting for input...
     Reading input from standard input
     Message from routine read_cards :
     DEPRECATED: no units specified in CELL_PARAMETERS card

     Current dimensions of program PWSCF are:
     Max number of different atomic species (ntypx) = 10
     Max number of k-points (npk) =  40000
     Max angular momentum in pseudopotentials (lmaxx) =  3

     Subspace diagonalization in iterative solution of the eigenvalue problem:
     one sub-group per band group will be used
     scalapack distributed-memory algorithm (size of sub-group:  9*  9 procs)

     Found symmetry operation: I + (  0.5000  0.5000 -0.5000)
     This is a supercell, fractional translations are disabled
 
     Parallelization info
     --------------------
     sticks:   dense  smooth     PW     G-vecs:    dense   smooth      PW
     Min           6       6      1                  124      124      15
     Max           7       7      2                  131      131      22
     Sum         657     657    185                12293    12293    1935
 


     bravais-lattice index     =            0
     lattice parameter (alat)  =       7.1286  a.u.
     unit-cell volume          =     362.2536 (a.u.)^3
     number of atoms/cell      =            8
     number of atomic types    =            1
     number of electrons       =        32.00
     number of Kohn-Sham states=           20
     kinetic-energy cutoff     =      40.0000  Ry
     charge density cutoff     =     160.0000  Ry
     convergence threshold     =      1.0E-06
     mixing beta               =       0.5000
     number of iterations used =            8  plain     mixing
     Exchange-correlation=  SLA  PW   PBE  PBE
                           (   1   4   3   4   0   0   0)
     nstep                     =          250


     celldm(1)=   7.128600  celldm(2)=   0.000000  celldm(3)=   0.000000
     celldm(4)=   0.000000  celldm(5)=   0.000000  celldm(6)=   0.000000

     crystal axes: (cart. coord. in units of alat)
               a(1) = (   1.000000   0.000000   0.000000 )  
               a(2) = (   0.000000   1.000000   0.000000 )  
               a(3) = (   0.000000   0.000000   1.000000 )  

     reciprocal axes: (cart. coord. in units 2 pi/alat)
               b(1) = (  1.000000  0.000000  0.000000 )  
               b(2) = (  0.000000  1.000000  0.000000 )  
               b(3) = (  0.000000  0.000000  1.000000 )  


     PseudoPot. # 1 for C  read from file:
     ./C.pbe-van_bm.upf
     MD5 check sum: 1a69bf6b8db32088f5b2163dbdb77a27
     Pseudo is Ultrasoft, Zval =  4.0
     Generated by new atomic code, or converted to UPF format
     Using radial grid of  721 points,  4 beta functions with: 
                l(1) =   0
                l(2) =   0
                l(3) =   1
                l(4) =   1
     Q(r) pseudized with  8 coefficients,  rinner =    0.800   0.800   0.800


     atomic species   valence    mass     pseudopotential
        C              4.00    12.00000     C ( 1.00)

     No symmetry found



   Cartesian axes

     site n.     atom                  positions (alat units)
         1           C   tau(   1) = (   0.7500000   0.5000000   0.3750000  )
         2           C   tau(   2) = (   0.0000000   0.2500000   0.1250000  )
         3           C   tau(   3) = (   0.2500000   0.0000000   0.8750000  )
         4           C   tau(   4) = (   0.5000000   0.7500000   0.6250000  )
         5           C   tau(   5) = (   0.7500000   0.0000000   0.8750000  )
         6           C   tau(   6) = (   0.5000000   0.2500000   0.6250000  )
         7           C   tau(   7) = (   0.0000000   0.7500000   0.1250000  )
         8           C   tau(   8) = (   0.2500000   0.5000000   0.3750000  )

     number of k points=    14  Marzari-Vanderbilt smearing, width (Ry)=  0.0200
                       cart. coord. in units 2pi/alat
        k(    1) = (   0.0000000   0.0000000   0.0000000), wk =   0.0740741
        k(    2) = (   0.0000000   0.0000000   0.3333333), wk =   0.1481481
        k(    3) = (   0.0000000   0.3333333   0.0000000), wk =   0.1481481
        k(    4) = (   0.0000000   0.3333333   0.3333333), wk =   0.1481481
        k(    5) = (   0.0000000   0.3333333  -0.3333333), wk =   0.1481481
        k(    6) = (   0.3333333   0.0000000   0.0000000), wk =   0.1481481
        k(    7) = (   0.3333333   0.0000000   0.3333333), wk =   0.1481481
        k(    8) = (   0.3333333   0.0000000  -0.3333333), wk =   0.1481481
        k(    9) = (   0.3333333   0.3333333   0.0000000), wk =   0.1481481
        k(   10) = (   0.3333333   0.3333333   0.3333333), wk =   0.1481481
        k(   11) = (   0.3333333   0.3333333  -0.3333333), wk =   0.1481481
        k(   12) = (   0.3333333  -0.3333333   0.0000000), wk =   0.1481481
        k(   13) = (   0.3333333  -0.3333333   0.3333333), wk =   0.1481481
        k(   14) = (   0.3333333  -0.3333333  -0.3333333), wk =   0.1481481

     Dense  grid:    12293 G-vectors     FFT dimensions: (  30,  30,  30)

     Estimated max dynamical RAM per process >       1.33 MB

     Estimated total dynamical RAM >     127.75 MB

     Initial potential from superposition of free atoms

     starting charge   31.99968, renormalised to   32.00000
     Starting wfcs are   32 randomized atomic wfcs

     total cpu time spent up to now is        0.6 secs

     Self-consistent Calculation

     iteration #  1     ecut=    40.00 Ry     beta= 0.50
     Davidson diagonalization with overlap
     ethr =  1.00E-02,  avg # of iterations =  2.0

     Threshold (ethr) on eigenvalues was too large:
     Diagonalizing with lowered threshold

     Davidson diagonalization with overlap
     ethr =  5.83E-04,  avg # of iterations =  1.0

     total cpu time spent up to now is        1.6 secs

     total energy              =     -89.42233259 Ry
     Harris-Foulkes estimate   =     -89.49816140 Ry
     estimated scf accuracy    <       0.18482925 Ry

     iteration #  2     ecut=    40.00 Ry     beta= 0.50
     Davidson diagonalization with overlap
     ethr =  5.78E-04,  avg # of iterations =  1.1

     total cpu time spent up to now is        2.0 secs

     total energy              =     -89.43109496 Ry
     Harris-Foulkes estimate   =     -89.43554954 Ry
     estimated scf accuracy    <       0.01628513 Ry

     iteration #  3     ecut=    40.00 Ry     beta= 0.50
     Davidson diagonalization with overlap
     ethr =  5.09E-05,  avg # of iterations =  4.9

     total cpu time spent up to now is        3.1 secs

     total energy              =     -89.43432109 Ry
     Harris-Foulkes estimate   =     -89.43422161 Ry
     estimated scf accuracy    <       0.00074191 Ry

     iteration #  4     ecut=    40.00 Ry     beta= 0.50
     Davidson diagonalization with overlap
     ethr =  2.32E-06,  avg # of iterations =  4.8

     total cpu time spent up to now is        4.3 secs

     total energy              =     -89.43445751 Ry
     Harris-Foulkes estimate   =     -89.43452524 Ry
     estimated scf accuracy    <       0.00014648 Ry

     iteration #  5     ecut=    40.00 Ry     beta= 0.50
     Davidson diagonalization with overlap
     ethr =  4.58E-07,  avg # of iterations =  2.0

     total cpu time spent up to now is        4.9 secs

     total energy              =     -89.43448511 Ry
     Harris-Foulkes estimate   =     -89.43448527 Ry
     estimated scf accuracy    <       0.00000340 Ry

     iteration #  6     ecut=    40.00 Ry     beta= 0.50
     Davidson diagonalization with overlap
     ethr =  1.06E-08,  avg # of iterations =  3.1

     total cpu time spent up to now is        5.7 secs

     End of self-consistent calculation

          k = 0.0000 0.0000 0.0000 (  1551 PWs)   bands (ev):

   -10.2388  -5.5533  -5.5529  -1.8275  -1.0633  -1.0631   4.3516   4.3525
     4.3631   4.3632   5.0542   5.9845   6.0230   6.0239  11.1824  12.1996
    12.6586  12.6594  13.0102  13.0110

          k = 0.0000 0.0000 0.3333 (  1534 PWs)   bands (ev):

    -9.5262  -7.6658  -3.8424  -2.4370  -0.2739  -0.2737   1.9265   1.9267
     3.2160   4.5804   5.9895   7.7751   8.5182   8.5189   8.7241   9.8489
    11.2483  11.2490  13.9981  14.8171

          k = 0.0000 0.3333 0.0000 (  1534 PWs)   bands (ev):

    -9.4420  -7.2998  -4.8601  -3.0833  -0.2206   0.0271   2.1517   2.4486
     4.7387   4.9842   5.3545   7.3661   8.2625   8.8815   9.0813  10.5277
    11.6115  11.9952  12.0654  15.5453

          k = 0.0000 0.3333 0.3333 (  1562 PWs)   bands (ev):

    -8.8190  -7.5745  -5.0120  -3.9176   0.2828   0.5349   1.3552   2.1883
     4.0649   5.7954   5.8902   5.9886   7.1759   7.6980  10.9191  11.2309
    11.5388  13.2892  14.6137  16.0248

          k = 0.0000 0.3333-0.3333 (  1562 PWs)   bands (ev):

    -8.8190  -7.5746  -5.0119  -3.9177   0.2827   0.5349   1.3553   2.1882
     4.0650   5.7954   5.8901   5.9886   7.1760   7.6981  10.9190  11.2308
    11.5388  13.2892  14.6138  16.0248

          k = 0.3333 0.0000 0.0000 (  1534 PWs)   bands (ev):

    -9.4420  -7.2997  -4.8604  -3.0835  -0.2204   0.0271   2.1520   2.4486
     4.7394   4.9844   5.3545   7.3653   8.2625   8.8821   9.0811  10.5272
    11.6122  11.9950  12.0647  15.5445

          k = 0.3333 0.0000 0.3333 (  1562 PWs)   bands (ev):

    -8.8189  -7.5745  -5.0122  -3.9179   0.2828   0.5351   1.3555   2.1886
     4.0650   5.7959   5.8902   5.9883   7.1753   7.6982  10.9186  11.2314
    11.5382  13.2901  14.6133  16.0239

          k = 0.3333 0.0000-0.3333 (  1562 PWs)   bands (ev):

    -8.8190  -7.5744  -5.0123  -3.9178   0.2829   0.5351   1.3554   2.1886
     4.0649   5.7959   5.8902   5.9883   7.1753   7.6981  10.9187  11.2315
    11.5382  13.2900  14.6133  16.0239

          k = 0.3333 0.3333 0.0000 (  1562 PWs)   bands (ev):

    -8.6576  -6.5565  -6.5564  -4.5957   0.8817   0.8817   2.9390   3.2793
     3.4210   3.4649   5.5260   5.5261   9.0356   9.0362   9.8998  11.3147
    12.6561  13.5144  14.8122  15.4804

          k = 0.3333 0.3333 0.3333 (  1544 PWs)   bands (ev):

    -8.1102  -7.0872  -5.7917  -4.8539  -0.9699   0.1512   1.6031   2.5713
     3.7453   4.6995   7.2149   7.5705   9.1197   9.3995   9.8990  10.3589
    12.4759  13.4044  15.2111  15.6335

          k = 0.3333 0.3333-0.3333 (  1544 PWs)   bands (ev):

    -8.1102  -7.0873  -5.7917  -4.8540  -0.9699   0.1512   1.6032   2.5713
     3.7452   4.6995   7.2149   7.5705   9.1197   9.3995   9.8990  10.3589
    12.4759  13.4044  15.2111  15.6335

          k = 0.3333-0.3333 0.0000 (  1562 PWs)   bands (ev):

    -8.6576  -6.5565  -6.5563  -4.5957   0.8817   0.8818   2.9390   3.2793
     3.4210   3.4649   5.5260   5.5261   9.0356   9.0363   9.8998  11.3147
    12.6561  13.5144  14.8122  15.4804

          k = 0.3333-0.3333 0.3333 (  1544 PWs)   bands (ev):

    -8.1101  -7.0873  -5.7916  -4.8540  -0.9699   0.1512   1.6032   2.5713
     3.7452   4.6995   7.2149   7.5705   9.1197   9.3996   9.8991  10.3589
    12.4760  13.4043  15.2112  15.6335

          k = 0.3333-0.3333-0.3333 (  1544 PWs)   bands (ev):

    -8.1102  -7.0872  -5.7917  -4.8539  -0.9699   0.1512   1.6031   2.5714
     3.7453   4.6995   7.2149   7.5705   9.1197   9.3995   9.8990  10.3589
    12.4759  13.4044  15.2112  15.6335

     the Fermi energy is    11.3751 ev

!    total energy              =     -89.43448558 Ry
     Harris-Foulkes estimate   =     -89.43448602 Ry
     estimated scf accuracy    <       0.00000097 Ry

     The total energy is the sum of the following terms:

     one-electron contribution =      18.35672782 Ry
     hartree contribution      =      11.50487974 Ry
     xc contribution           =     -27.36707523 Ry
     ewald contribution        =     -91.92713610 Ry
     smearing contrib. (-TS)   =      -0.00188180 Ry

     convergence has been achieved in   6 iterations

     Forces acting on atoms (cartesian axes, Ry/au):

     atom    1 type  1   force =     0.00000469   -0.00001100   -0.00004539
     atom    2 type  1   force =    -0.00000300    0.00000413    0.00004300
     atom    3 type  1   force =    -0.00000436    0.00000943   -0.00004434
     atom    4 type  1   force =     0.00000128   -0.00000132    0.00004824
     atom    5 type  1   force =     0.00000415    0.00001206   -0.00004392
     atom    6 type  1   force =     0.00000207    0.00000218    0.00004562
     atom    7 type  1   force =    -0.00000302   -0.00000356    0.00004268
     atom    8 type  1   force =    -0.00000181   -0.00001190   -0.00004590

     Total force =     0.000129     Total SCF correction =     0.000685
     SCF correction compared to forces is large: reduce conv_thr to get better values


     Computing stress (Cartesian axis) and pressure

          total   stress  (Ry/bohr**3)                   (kbar)     P=       94.13
   0.00057941   0.00000002  -0.00000028           85.23        0.00       -0.04
   0.00000002   0.00058232   0.00000031            0.00       85.66        0.05
  -0.00000028   0.00000031   0.00075784           -0.04        0.05      111.48


     BFGS Geometry Optimization

     number of scf cycles    =   1
     number of bfgs steps    =   0

     enthalpy new            =     -89.4344609503 Ry

     new trust radius        =       0.0721131736 bohr
     new conv_thr            =       0.0000010000 Ry

     new unit-cell volume =    379.91310 a.u.^3 (    56.29731 Ang^3 )
     density =      2.83160 g/cm^3

CELL_PARAMETERS (bohr)
   7.231846637   0.000004326  -0.000049656
   0.000004326   7.232365715   0.000055443
  -0.000049656   0.000055443   7.263646219

ATOMIC_POSITIONS (crystal)
C             0.7500006579        0.4999984564        0.3749936327
C            -0.0000004210        0.2500005796        0.1250060326
C             0.2499993887        0.0000013227        0.8749937805
C             0.5000001801        0.7499998144        0.6250067670
C             0.7500005824        0.0000016913        0.8749938393
C             0.5000002899        0.2500003051        0.6250063995
C            -0.0000004240        0.7499994999        0.1250059872
C             0.2499997459        0.4999983306        0.3749935611



     Writing output data file ./pp.save/
     NEW-OLD atomic charge density approx. for the potential
     extrapolated charge   33.48744, renormalised to   32.00000

     total cpu time spent up to now is        5.9 secs

     Self-consistent Calculation

     iteration #  1     ecut=    40.00 Ry     beta= 0.50
     Davidson diagonalization with overlap
     ethr =  1.00E-06,  avg # of iterations =  6.8

     total cpu time spent up to now is        7.6 secs

     total energy              =     -89.41314430 Ry
     Harris-Foulkes estimate   =     -89.98978150 Ry
     estimated scf accuracy    <       0.01638377 Ry

     iteration #  2     ecut=    40.00 Ry     beta= 0.50
     Davidson diagonalization with overlap
     ethr =  5.12E-05,  avg # of iterations =  3.2

     total cpu time spent up to now is        8.5 secs

     total energy              =     -89.43938931 Ry
     Harris-Foulkes estimate   =     -89.44212146 Ry
     estimated scf accuracy    <       0.00841885 Ry

     iteration #  3     ecut=    40.00 Ry     beta= 0.50
     Davidson diagonalization with overlap
     ethr =  2.63E-05,  avg # of iterations =  1.0

     total cpu time spent up to now is        8.9 secs

     total energy              =     -89.43832037 Ry
     Harris-Foulkes estimate   =     -89.43974106 Ry
     estimated scf accuracy    <       0.00271226 Ry

     iteration #  4     ecut=    40.00 Ry     beta= 0.50
     Davidson diagonalization with overlap
     ethr =  8.48E-06,  avg # of iterations =  2.1

     total cpu time spent up to now is        9.6 secs

     total energy              =     -89.43865219 Ry
     Harris-Foulkes estimate   =     -89.43867498 Ry
     estimated scf accuracy    <       0.00004493 Ry

     iteration #  5     ecut=    40.00 Ry     beta= 0.50
     Davidson diagonalization with overlap
     ethr =  1.40E-07,  avg # of iterations =  3.8

     total cpu time spent up to now is       10.5 secs

     total energy              =     -89.43867123 Ry
     Harris-Foulkes estimate   =     -89.43867201 Ry
     estimated scf accuracy    <       0.00000257 Ry

     iteration #  6     ecut=    40.00 Ry     beta= 0.50
     Davidson diagonalization with overlap
     ethr =  8.05E-09,  avg # of iterations =  2.3

     total cpu time spent up to now is       11.3 secs

     total energy              =     -89.43867386 Ry
     Harris-Foulkes estimate   =     -89.43867185 Ry
     estimated scf accuracy    <       0.00000145 Ry

     iteration #  7     ecut=    40.00 Ry     beta= 0.50
     Davidson diagonalization with overlap
     ethr =  4.52E-09,  avg # of iterations =  2.7

     total cpu time spent up to now is       12.1 secs

     total energy              =     -89.43867134 Ry
     Harris-Foulkes estimate   =     -89.43867449 Ry
     estimated scf accuracy    <       0.00000627 Ry

     iteration #  8     ecut=    40.00 Ry     beta= 0.50
     Davidson diagonalization with overlap
     ethr =  4.52E-09,  avg # of iterations =  2.1

     total cpu time spent up to now is       12.8 secs

     End of self-consistent calculation

          k = 0.0000 0.0000 0.0000 (  1551 PWs)   bands (ev):

   -10.3957  -5.8643  -5.8632  -2.0692  -1.4643  -1.4631   3.8940   3.8952
     3.9511   3.9516   4.6151   5.1260   5.1267   5.4647  10.1295  11.4391
    11.8875  11.8877  12.2206  12.2218

          k = 0.0000-0.0000 0.3271 (  1534 PWs)   bands (ev):

    -9.7147  -7.9308  -4.1332  -2.6973  -0.7063  -0.7051   1.4149   1.4160
     2.8832   4.1563   5.5100   7.1377   7.7096   7.7102   8.1254   9.0426
    10.4489  10.4493  13.0127  13.9220

          k =-0.0000 0.3286-0.0000 (  1534 PWs)   bands (ev):

    -9.6227  -7.5484  -5.1719  -3.3769  -0.6494  -0.3866   1.6420   1.9917
     4.2968   4.4292   4.8521   6.8473   7.6562   8.0833   8.3229   9.8229
    10.7977  11.1413  11.3016  14.5158

          k = 0.0000 0.3285 0.3271 (  1562 PWs)   bands (ev):

    -9.0307  -7.8396  -5.2847  -4.2068  -0.0567   0.0662   1.0150   1.6113
     3.6520   5.2611   5.3624   5.3642   6.5572   7.0002  10.1635  10.4087
    10.7567  12.4783  13.7392  15.1219

          k =-0.0000 0.3286-0.3271 (  1562 PWs)   bands (ev):

    -9.0306  -7.8398  -5.2846  -4.2068  -0.0568   0.0662   1.0152   1.6111
     3.6522   5.2612   5.3623   5.3640   6.5574   7.0000  10.1636  10.4088
    10.7567  12.4783  13.7391  15.1221

          k = 0.3286-0.0000 0.0000 (  1534 PWs)   bands (ev):

    -9.6226  -7.5479  -5.1725  -3.3772  -0.6505  -0.3859   1.6413   1.9926
     4.2974   4.4295   4.8510   6.8477   7.6555   8.0830   8.3238   9.8227
    10.7975  11.1411  11.3013  14.5177

          k = 0.3286-0.0000 0.3271 (  1562 PWs)   bands (ev):

    -9.0305  -7.8394  -5.2849  -4.2070  -0.0563   0.0652   1.0158   1.6102
     3.6514   5.2623   5.3617   5.3637   6.5568   7.0011  10.1642  10.4085
    10.7572  12.4782  13.7393  15.1235

          k = 0.3286 0.0000-0.3271 (  1562 PWs)   bands (ev):

    -9.0305  -7.8393  -5.2850  -4.2070  -0.0562   0.0651   1.0157   1.6104
     3.6512   5.2622   5.3617   5.3639   6.5567   7.0013  10.1641  10.4085
    10.7572  12.4783  13.7394  15.1233

          k = 0.3286 0.3286-0.0000 (  1562 PWs)   bands (ev):

    -8.8602  -6.8193  -6.8186  -4.8873   0.4439   0.4446   2.5470   2.7311
     2.8432   3.0098   5.0023   5.0027   8.4038   8.4041   9.1407  10.5626
    11.7951  12.7093  13.9935  14.6025

          k = 0.3286 0.3285 0.3271 (  1544 PWs)   bands (ev):

    -8.3416  -7.3620  -6.0643  -5.1500  -1.3031  -0.2274   1.2080   2.1898
     3.1536   4.1784   6.5856   7.0093   8.4209   8.7313   9.2168   9.6044
    11.6090  12.5546  14.3669  14.6823

          k = 0.3286 0.3286-0.3271 (  1544 PWs)   bands (ev):

    -8.3416  -7.3620  -6.0643  -5.1500  -1.3031  -0.2274   1.2080   2.1898
     3.1536   4.1783   6.5856   7.0093   8.4209   8.7313   9.2168   9.6044
    11.6089  12.5546  14.3669  14.6823

          k = 0.3286-0.3286 0.0000 (  1562 PWs)   bands (ev):

    -8.8602  -6.8193  -6.8186  -4.8873   0.4439   0.4446   2.5470   2.7311
     2.8432   3.0098   5.0023   5.0027   8.4038   8.4042   9.1407  10.5626
    11.7951  12.7093  13.9935  14.6025

          k = 0.3286-0.3286 0.3271 (  1544 PWs)   bands (ev):

    -8.3415  -7.3621  -6.0642  -5.1501  -1.3031  -0.2274   1.2080   2.1898
     3.1537   4.1783   6.5855   7.0094   8.4208   8.7313   9.2168   9.6043
    11.6089  12.5547  14.3669  14.6823

          k = 0.3286-0.3285-0.3271 (  1544 PWs)   bands (ev):

    -8.3417  -7.3619  -6.0644  -5.1500  -1.3032  -0.2274   1.2079   2.1898
     3.1535   4.1784   6.5857   7.0093   8.4209   8.7313   9.2168   9.6044
    11.6090  12.5545  14.3669  14.6823

     the Fermi energy is    10.5735 ev

!    total energy              =     -89.43867181 Ry
     Harris-Foulkes estimate   =     -89.43867196 Ry
     estimated scf accuracy    <       0.00000024 Ry

     The total energy is the sum of the following terms:

     one-electron contribution =      16.31933743 Ry
     hartree contribution      =      11.77763382 Ry
     xc contribution           =     -27.09665079 Ry
     ewald contribution        =     -90.43793758 Ry
     smearing contrib. (-TS)   =      -0.00105469 Ry

     convergence has been achieved in   8 iterations

     Forces acting on atoms (cartesian axes, Ry/au):

     atom    1 type  1   force =    -0.00001651    0.00000244   -0.00004723
     atom    2 type  1   force =    -0.00000016   -0.00001542    0.00004736
     atom    3 type  1   force =    -0.00002133   -0.00000387   -0.00004796
     atom    4 type  1   force =    -0.00000131   -0.00001969    0.00004739
     atom    5 type  1   force =     0.00002205   -0.00000262   -0.00004739
     atom    6 type  1   force =    -0.00000065    0.00002099    0.00004700
     atom    7 type  1   force =     0.00000033    0.00001610    0.00004681
     atom    8 type  1   force =     0.00001759    0.00000207   -0.00004598

     Total force =     0.000144     Total SCF correction =     0.000015
     SCF correction compared to forces is large: reduce conv_thr to get better values


     Computing stress (Cartesian axis) and pressure

          total   stress  (Ry/bohr**3)                   (kbar)     P=      -24.85
  -0.00025146   0.00000006   0.00000016          -36.99        0.01        0.02
   0.00000006  -0.00025328  -0.00000019            0.01      -37.26       -0.03
   0.00000016  -0.00000019  -0.00000197            0.02       -0.03       -0.29


     number of scf cycles    =   2
     number of bfgs steps    =   1

     enthalpy old            =     -89.4344609503 Ry
     enthalpy new            =     -89.4386459795 Ry

     CASE: enthalpy_new < enthalpy_old

     new trust radius        =       0.0184322462 bohr
     new conv_thr            =       0.0000000100 Ry

     new unit-cell volume =    376.55027 a.u.^3 (    55.79899 Ang^3 )
     density =      2.85689 g/cm^3

CELL_PARAMETERS (bohr)
   7.197900577   0.000013261  -0.000027721
   0.000013260   7.198168843   0.000029080
  -0.000028077   0.000029485   7.267668169

ATOMIC_POSITIONS (crystal)
C             0.7499987904        0.4999986864        0.3749880021
C            -0.0000004529        0.2499988340        0.1250116673
C             0.2499969289        0.0000009219        0.8749880707
C             0.5000000355        0.7499975557        0.6250124293
C             0.7500031233        0.0000014461        0.8749881967
C             0.5000002250        0.2500027165        0.6250120047
C            -0.0000004001        0.7500013258        0.1250115577
C             0.2500017498        0.4999985135        0.3749880715



     Writing output data file ./pp.save/
     NEW-OLD atomic charge density approx. for the potential
     extrapolated charge   31.71422, renormalised to   32.00000

     total cpu time spent up to now is       12.8 secs

     Self-consistent Calculation

     iteration #  1     ecut=    40.00 Ry     beta= 0.50
     Davidson diagonalization with overlap
     ethr =  1.00E-06,  avg # of iterations =  4.0

     total cpu time spent up to now is       14.1 secs

     total energy              =     -89.43838640 Ry
     Harris-Foulkes estimate   =     -89.33336419 Ry
     estimated scf accuracy    <       0.00059821 Ry

     iteration #  2     ecut=    40.00 Ry     beta= 0.50
     Davidson diagonalization with overlap
     ethr =  1.87E-06,  avg # of iterations =  3.3

     total cpu time spent up to now is       15.1 secs

     total energy              =     -89.43929889 Ry
     Harris-Foulkes estimate   =     -89.43939167 Ry
     estimated scf accuracy    <       0.00028316 Ry

     iteration #  3     ecut=    40.00 Ry     beta= 0.50
     Davidson diagonalization with overlap
     ethr =  8.85E-07,  avg # of iterations =  1.0

     total cpu time spent up to now is       15.6 secs

     total energy              =     -89.43926073 Ry
     Harris-Foulkes estimate   =     -89.43931144 Ry
     estimated scf accuracy    <       0.00008728 Ry

     iteration #  4     ecut=    40.00 Ry     beta= 0.50
     Davidson diagonalization with overlap
     ethr =  2.73E-07,  avg # of iterations =  2.1

     total cpu time spent up to now is       16.3 secs

     total energy              =     -89.43927727 Ry
     Harris-Foulkes estimate   =     -89.43927728 Ry
     estimated scf accuracy    <       0.00000049 Ry

     iteration #  5     ecut=    40.00 Ry     beta= 0.50
     Davidson diagonalization with overlap
     ethr =  1.52E-09,  avg # of iterations =  3.5

     total cpu time spent up to now is       17.4 secs

     total energy              =     -89.43927720 Ry
     Harris-Foulkes estimate   =     -89.43927747 Ry
     estimated scf accuracy    <       0.00000042 Ry

     iteration #  6     ecut=    40.00 Ry     beta= 0.50
     Davidson diagonalization with overlap
     ethr =  1.31E-09,  avg # of iterations =  2.0

     total cpu time spent up to now is       18.2 secs

     total energy              =     -89.43927729 Ry
     Harris-Foulkes estimate   =     -89.43927734 Ry
     estimated scf accuracy    <       0.00000010 Ry

     iteration #  7     ecut=    40.00 Ry     beta= 0.50
     Davidson diagonalization with overlap
     ethr =  3.21E-10,  avg # of iterations =  2.0

     total cpu time spent up to now is       18.9 secs

     End of self-consistent calculation

          k = 0.0000 0.0000 0.0000 (  1551 PWs)   bands (ev):

   -10.3788  -5.8352  -5.8341  -2.0479  -1.3593  -1.3587   3.9616   3.9622
     3.9935   3.9939   4.7471   5.3129   5.3133   5.5230  10.2682  11.5514
    12.0347  12.0348  12.3705  12.3726

          k = 0.0000-0.0000 0.3270 (  1534 PWs)   bands (ev):

    -9.6978  -7.9111  -4.1000  -2.6713  -0.6017  -0.6011   1.5181   1.5187
     2.9429   4.2196   5.6432   7.1828   7.8677   7.8680   8.2633   9.1564
    10.6067  10.6069  13.1239  14.0726

          k =-0.0000 0.3301-0.0000 (  1534 PWs)   bands (ev):

    -9.6000  -7.5140  -5.1403  -3.3444  -0.5368  -0.3276   1.7761   2.0462
     4.3438   4.4959   4.9288   6.9479   7.7612   8.2479   8.4784   9.9487
    10.9537  11.2687  11.4362  14.7563

          k = 0.0000 0.3301 0.3270 (  1562 PWs)   bands (ev):

    -9.0081  -7.8129  -5.2503  -4.1729   0.0003   0.1802   1.0673   1.7409
     3.7470   5.3503   5.4537   5.4747   6.6520   7.1308  10.2856  10.5676
    10.8973  12.6304  13.8736  15.3305

          k =-0.0000 0.3301-0.3270 (  1562 PWs)   bands (ev):

    -9.0080  -7.8130  -5.2502  -4.1729   0.0002   0.1803   1.0674   1.7408
     3.7471   5.3503   5.4536   5.4747   6.6521   7.1307  10.2856  10.5676
    10.8973  12.6304  13.8736  15.3306

          k = 0.3301-0.0000 0.0000 (  1534 PWs)   bands (ev):

    -9.5999  -7.5137  -5.1407  -3.3446  -0.5373  -0.3272   1.7757   2.0467
     4.3441   4.4960   4.9282   6.9481   7.7608   8.2477   8.4789   9.9486
    10.9536  11.2686  11.4360  14.7573

          k = 0.3301-0.0000 0.3270 (  1562 PWs)   bands (ev):

    -9.0079  -7.8128  -5.2504  -4.1730   0.0005   0.1797   1.0677   1.7403
     3.7467   5.3509   5.4534   5.4744   6.6518   7.1313  10.2859  10.5674
    10.8976  12.6304  13.8737  15.3313

          k = 0.3301 0.0000-0.3270 (  1562 PWs)   bands (ev):

    -9.0080  -7.8127  -5.2504  -4.1730   0.0006   0.1797   1.0677   1.7404
     3.7466   5.3509   5.4535   5.4744   6.6517   7.1314  10.2858  10.5674
    10.8976  12.6304  13.8737  15.3313

          k = 0.3301 0.3301-0.0000 (  1562 PWs)   bands (ev):

    -8.8320  -6.7811  -6.7804  -4.8442   0.5112   0.5116   2.6354   2.7980
     2.9256   3.0670   5.0801   5.0805   8.5339   8.5341   9.3076  10.7065
    11.9633  12.8537  14.2002  14.7882

          k = 0.3301 0.3301 0.3270 (  1544 PWs)   bands (ev):

    -8.3139  -7.3312  -6.0252  -5.1106  -1.2417  -0.1640   1.2853   2.2628
     3.2534   4.2754   6.6746   7.1297   8.5776   8.8438   9.3219   9.7392
    11.7477  12.7060  14.5719  14.8754

          k = 0.3301 0.3301-0.3270 (  1544 PWs)   bands (ev):

    -8.3139  -7.3312  -6.0252  -5.1107  -1.2417  -0.1640   1.2853   2.2628
     3.2534   4.2754   6.6746   7.1297   8.5776   8.8438   9.3219   9.7392
    11.7477  12.7061  14.5719  14.8754

          k = 0.3301-0.3301 0.0000 (  1562 PWs)   bands (ev):

    -8.8320  -6.7812  -6.7804  -4.8441   0.5112   0.5116   2.6355   2.7979
     2.9256   3.0671   5.0801   5.0805   8.5339   8.5341   9.3076  10.7065
    11.9633  12.8537  14.2002  14.7882

          k = 0.3301-0.3301 0.3270 (  1544 PWs)   bands (ev):

    -8.3138  -7.3313  -6.0252  -5.1107  -1.2417  -0.1640   1.2854   2.2628
     3.2535   4.2753   6.6745   7.1297   8.5775   8.8439   9.3219   9.7391
    11.7477  12.7061  14.5719  14.8753

          k = 0.3301-0.3301-0.3270 (  1544 PWs)   bands (ev):

    -8.3139  -7.3311  -6.0252  -5.1106  -1.2418  -0.1640   1.2853   2.2628
     3.2534   4.2754   6.6746   7.1297   8.5776   8.8439   9.3218   9.7392
    11.7478  12.7060  14.5719  14.8754

     the Fermi energy is    10.7273 ev

!    total energy              =     -89.43927730 Ry
     Harris-Foulkes estimate   =     -89.43927730 Ry
     estimated scf accuracy    <          5.9E-09 Ry

     The total energy is the sum of the following terms:

     one-electron contribution =      16.59735168 Ry
     hartree contribution      =      11.77215994 Ry
     xc contribution           =     -27.15163903 Ry
     ewald contribution        =     -90.65574038 Ry
     smearing contrib. (-TS)   =      -0.00140950 Ry

     convergence has been achieved in   7 iterations

     Forces acting on atoms (cartesian axes, Ry/au):

     atom    1 type  1   force =    -0.00003570    0.00000186   -0.00005610
     atom    2 type  1   force =    -0.00000063   -0.00003372    0.00005632
     atom    3 type  1   force =    -0.00003995   -0.00000445   -0.00005914
     atom    4 type  1   force =    -0.00000195   -0.00003753    0.00005854
     atom    5 type  1   force =     0.00004136   -0.00000260   -0.00005802
     atom    6 type  1   force =    -0.00000085    0.00003953    0.00005746
     atom    7 type  1   force =     0.00000008    0.00003514    0.00005524
     atom    8 type  1   force =     0.00003764    0.00000177   -0.00005430

     Total force =     0.000193     Total SCF correction =     0.000013


     Computing stress (Cartesian axis) and pressure

          total   stress  (Ry/bohr**3)                   (kbar)     P=       -3.22
  -0.00007799   0.00000020   0.00000009          -11.47        0.03        0.01
   0.00000020  -0.00007896  -0.00000010            0.03      -11.62       -0.01
   0.00000009  -0.00000010   0.00009128            0.01       -0.01       13.43


     number of scf cycles    =   3
     number of bfgs steps    =   2

     enthalpy old            =     -89.4386459795 Ry
     enthalpy new            =     -89.4392516990 Ry

     CASE: enthalpy_new < enthalpy_old

     new trust radius        =       0.0161508522 bohr
     new conv_thr            =       0.0000000100 Ry

     new unit-cell volume =    375.56639 a.u.^3 (    55.65320 Ang^3 )
     density =      2.86438 g/cm^3

CELL_PARAMETERS (bohr)
   7.173727285   0.000069758  -0.000000875
   0.000069755   7.173699625  -0.000000251
  -0.000001710   0.000000670   7.297912826

ATOMIC_POSITIONS (crystal)
C             0.7499909031        0.4999990701        0.3749747296
C            -0.0000006071        0.2499913856        0.1250249764
C             0.2499879862       -0.0000000494        0.8749741375
C             0.4999996025        0.7499891787        0.6250262438
C             0.7500123788        0.0000009083        0.8749745180
C             0.5000000422        0.2500115498        0.6250255642
C            -0.0000003926        0.7500090915        0.1250246223
C             0.2500100869        0.4999988654        0.3749752084



     Writing output data file ./pp.save/
     NEW-OLD atomic charge density approx. for the potential
     extrapolated charge   31.91617, renormalised to   32.00000

     total cpu time spent up to now is       19.0 secs

     Self-consistent Calculation

     iteration #  1     ecut=    40.00 Ry     beta= 0.50
     Davidson diagonalization with overlap
     ethr =  1.00E-06,  avg # of iterations =  5.1

     total cpu time spent up to now is       20.6 secs

     total energy              =     -89.43941853 Ry
     Harris-Foulkes estimate   =     -89.40856317 Ry
     estimated scf accuracy    <       0.00005986 Ry

     iteration #  2     ecut=    40.00 Ry     beta= 0.50
     Davidson diagonalization with overlap
     ethr =  1.87E-07,  avg # of iterations =  3.5

     total cpu time spent up to now is       21.7 secs

     total energy              =     -89.43950114 Ry
     Harris-Foulkes estimate   =     -89.43950971 Ry
     estimated scf accuracy    <       0.00002750 Ry

     iteration #  3     ecut=    40.00 Ry     beta= 0.50
     Davidson diagonalization with overlap
     ethr =  8.59E-08,  avg # of iterations =  1.0

     total cpu time spent up to now is       22.3 secs

     total energy              =     -89.43949778 Ry
     Harris-Foulkes estimate   =     -89.43950236 Ry
     estimated scf accuracy    <       0.00000835 Ry

     iteration #  4     ecut=    40.00 Ry     beta= 0.50
     Davidson diagonalization with overlap
     ethr =  2.61E-08,  avg # of iterations =  2.2

     total cpu time spent up to now is       23.3 secs

     total energy              =     -89.43949958 Ry
     Harris-Foulkes estimate   =     -89.43949975 Ry
     estimated scf accuracy    <       0.00000043 Ry

     iteration #  5     ecut=    40.00 Ry     beta= 0.50
     Davidson diagonalization with overlap
     ethr =  1.33E-09,  avg # of iterations =  2.3

     total cpu time spent up to now is       24.2 secs

     total energy              =     -89.43949958 Ry
     Harris-Foulkes estimate   =     -89.43949962 Ry
     estimated scf accuracy    <       0.00000007 Ry

     iteration #  6     ecut=    40.00 Ry     beta= 0.50
     Davidson diagonalization with overlap
     ethr =  2.33E-10,  avg # of iterations =  2.0

     total cpu time spent up to now is       25.1 secs

     End of self-consistent calculation

          k = 0.0000 0.0000 0.0000 (  1551 PWs)   bands (ev):

   -10.3860  -5.8551  -5.8542  -2.0654  -1.2978  -1.2977   3.9633   3.9635
     3.9752   3.9755   4.8369   5.3890   5.3896   5.5031  10.2534  11.5550
    12.0826  12.0827  12.4191  12.4231

          k = 0.0000 0.0000 0.3256 (  1534 PWs)   bands (ev):

    -9.7105  -7.9342  -4.1116  -2.6862  -0.5465  -0.5464   1.5566   1.5567
     2.9581   4.2230   5.7272   7.1247   7.9233   7.9237   8.3318   9.1525
    10.6627  10.6631  13.0874  14.1007

          k =-0.0000 0.3312-0.0000 (  1534 PWs)   bands (ev):

    -9.6039  -7.5157  -5.1575  -3.3573  -0.4707  -0.3277   1.8544   2.0329
     4.3237   4.4796   4.9361   6.9827   7.7858   8.3144   8.5392   9.9809
    11.0060  11.2737  11.4701  14.8795

          k =-0.0000 0.3312 0.3256 (  1562 PWs)   bands (ev):

    -9.0177  -7.8271  -5.2564  -4.1827   0.0106   0.2408   1.0721   1.8016
     3.7940   5.3644   5.4521   5.5232   6.6615   7.1706  10.3054  10.6214
    10.9349  12.6774  13.8836  15.4316

          k =-0.0000 0.3312-0.3256 (  1562 PWs)   bands (ev):

    -9.0177  -7.8271  -5.2564  -4.1827   0.0106   0.2408   1.0721   1.8016
     3.7941   5.3644   5.4521   5.5232   6.6615   7.1706  10.3054  10.6214
    10.9349  12.6774  13.8836  15.4316

          k = 0.3312-0.0000 0.0000 (  1534 PWs)   bands (ev):

    -9.6039  -7.5157  -5.1575  -3.3573  -0.4707  -0.3277   1.8544   2.0328
     4.3237   4.4796   4.9362   6.9827   7.7858   8.3144   8.5392   9.9810
    11.0060  11.2737  11.4701  14.8794

          k = 0.3312-0.0000 0.3256 (  1562 PWs)   bands (ev):

    -9.0177  -7.8271  -5.2564  -4.1827   0.0106   0.2408   1.0720   1.8016
     3.7941   5.3644   5.4521   5.5232   6.6615   7.1706  10.3054  10.6214
    10.9349  12.6774  13.8836  15.4315

          k = 0.3312-0.0000-0.3256 (  1562 PWs)   bands (ev):

    -9.0177  -7.8271  -5.2564  -4.1827   0.0106   0.2408   1.0720   1.8016
     3.7941   5.3644   5.4521   5.5232   6.6615   7.1706  10.3054  10.6214
    10.9349  12.6774  13.8836  15.4315

          k = 0.3312 0.3312 0.0000 (  1562 PWs)   bands (ev):

    -8.8331  -6.7804  -6.7799  -4.8429   0.5167   0.5172   2.6773   2.7838
     2.9172   3.0657   5.0844   5.0853   8.5858   8.5859   9.3842  10.7528
    12.0226  12.8896  14.3162  14.8641

          k = 0.3312 0.3312 0.3256 (  1544 PWs)   bands (ev):

    -8.3207  -7.3419  -6.0252  -5.1147  -1.2242  -0.1521   1.3119   2.2861
     3.2729   4.3045   6.6728   7.1809   8.6515   8.8658   9.3328   9.7722
    11.7681  12.7445  14.6809  14.9443

          k = 0.3312 0.3312-0.3256 (  1544 PWs)   bands (ev):

    -8.3207  -7.3419  -6.0252  -5.1147  -1.2242  -0.1521   1.3119   2.2861
     3.2729   4.3045   6.6728   7.1809   8.6515   8.8658   9.3328   9.7722
    11.7681  12.7445  14.6809  14.9443

          k = 0.3312-0.3312 0.0000 (  1562 PWs)   bands (ev):

    -8.8331  -6.7805  -6.7800  -4.8428   0.5168   0.5172   2.6774   2.7836
     2.9169   3.0658   5.0845   5.0854   8.5860   8.5861   9.3839  10.7528
    12.0227  12.8895  14.3161  14.8642

          k = 0.3312-0.3312 0.3256 (  1544 PWs)   bands (ev):

    -8.3207  -7.3419  -6.0253  -5.1147  -1.2242  -0.1522   1.3120   2.2862
     3.2731   4.3045   6.6728   7.1809   8.6513   8.8660   9.3326   9.7720
    11.7682  12.7446  14.6807  14.9441

          k = 0.3312-0.3312-0.3256 (  1544 PWs)   bands (ev):

    -8.3207  -7.3419  -6.0253  -5.1147  -1.2242  -0.1522   1.3120   2.2862
     3.2731   4.3045   6.6728   7.1809   8.6513   8.8660   9.3326   9.7720
    11.7682  12.7446  14.6807  14.9441

     the Fermi energy is    10.7793 ev

!    total energy              =     -89.43949959 Ry
     Harris-Foulkes estimate   =     -89.43949959 Ry
     estimated scf accuracy    <          2.5E-09 Ry

     The total energy is the sum of the following terms:

     one-electron contribution =      16.58298482 Ry
     hartree contribution      =      11.81622695 Ry
     xc contribution           =     -27.17310483 Ry
     ewald contribution        =     -90.66376157 Ry
     smearing contrib. (-TS)   =      -0.00184496 Ry

     convergence has been achieved in   6 iterations

     Forces acting on atoms (cartesian axes, Ry/au):

     atom    1 type  1   force =    -0.00007707   -0.00000094   -0.00009166
     atom    2 type  1   force =    -0.00000294   -0.00007224    0.00009168
     atom    3 type  1   force =    -0.00008447   -0.00000566   -0.00009529
     atom    4 type  1   force =    -0.00000392   -0.00007893    0.00009489
     atom    5 type  1   force =     0.00008831   -0.00000169   -0.00009232
     atom    6 type  1   force =    -0.00000108    0.00008343    0.00009181
     atom    7 type  1   force =    -0.00000063    0.00007597    0.00008881
     atom    8 type  1   force =     0.00008179    0.00000005   -0.00008793

     Total force =     0.000345     Total SCF correction =     0.000079
     SCF correction compared to forces is large: reduce conv_thr to get better values


     Computing stress (Cartesian axis) and pressure

          total   stress  (Ry/bohr**3)                   (kbar)     P=        4.37
   0.00000653   0.00000107   0.00000000            0.96        0.16        0.00
   0.00000107   0.00000661   0.00000000            0.16        0.97        0.00
   0.00000000   0.00000000   0.00007588            0.00        0.00       11.16


     number of scf cycles    =   4
     number of bfgs steps    =   3

     enthalpy old            =     -89.4392516990 Ry
     enthalpy new            =     -89.4394740615 Ry

     CASE: enthalpy_new < enthalpy_old

     new trust radius        =       0.0140187597 bohr
     new conv_thr            =       0.0000000100 Ry

     new unit-cell volume =    375.98165 a.u.^3 (    55.71473 Ang^3 )
     density =      2.86121 g/cm^3

CELL_PARAMETERS (bohr)
   7.164785963   0.000358194   0.000008805
   0.000358191   7.164679992  -0.000009630
   0.000007792  -0.000008546   7.324308628

ATOMIC_POSITIONS (crystal)
C             0.7499738397        0.4999989757        0.3749526357
C            -0.0000012314        0.2499753837        0.1250470765
C             0.2499691254       -0.0000014100        0.8749511895
C             0.4999987193        0.7499715667        0.6250490884
C             0.7500320753        0.0000004512        0.8749522306
C             0.4999997872        0.2500301713        0.6250477244
C            -0.0000005163        0.7500259083        0.1250460844
C             0.2500282007        0.4999989531        0.3749539704



     Writing output data file ./pp.save/
     NEW-OLD atomic charge density approx. for the potential
     extrapolated charge   32.03534, renormalised to   32.00000

     total cpu time spent up to now is       25.2 secs

     Self-consistent Calculation

     iteration #  1     ecut=    40.00 Ry     beta= 0.50
     Davidson diagonalization with overlap
     ethr =  1.00E-06,  avg # of iterations =  3.9

     Threshold (ethr) on eigenvalues was too large:
     Diagonalizing with lowered threshold

     Davidson diagonalization with overlap
     ethr =  3.59E-08,  avg # of iterations =  3.0

     total cpu time spent up to now is       27.7 secs

     total energy              =     -89.43954187 Ry
     Harris-Foulkes estimate   =     -89.45250669 Ry
     estimated scf accuracy    <       0.00001243 Ry

     iteration #  2     ecut=    40.00 Ry     beta= 0.50
     Davidson diagonalization with overlap
     ethr =  3.88E-08,  avg # of iterations =  2.9

     total cpu time spent up to now is       29.0 secs

     total energy              =     -89.43955710 Ry
     Harris-Foulkes estimate   =     -89.43955844 Ry
     estimated scf accuracy    <       0.00000477 Ry

     iteration #  3     ecut=    40.00 Ry     beta= 0.50
     Davidson diagonalization with overlap
     ethr =  1.49E-08,  avg # of iterations =  1.2

     total cpu time spent up to now is       29.8 secs

     total energy              =     -89.43955673 Ry
     Harris-Foulkes estimate   =     -89.43955734 Ry
     estimated scf accuracy    <       0.00000142 Ry

     iteration #  4     ecut=    40.00 Ry     beta= 0.50
     Davidson diagonalization with overlap
     ethr =  4.44E-09,  avg # of iterations =  2.1

     total cpu time spent up to now is       30.9 secs

     total energy              =     -89.43955703 Ry
     Harris-Foulkes estimate   =     -89.43955705 Ry
     estimated scf accuracy    <       0.00000013 Ry

     iteration #  5     ecut=    40.00 Ry     beta= 0.50
     Davidson diagonalization with overlap
     ethr =  3.95E-10,  avg # of iterations =  1.9

     total cpu time spent up to now is       31.8 secs

     total energy              =     -89.43955702 Ry
     Harris-Foulkes estimate   =     -89.43955704 Ry
     estimated scf accuracy    <       0.00000007 Ry

     iteration #  6     ecut=    40.00 Ry     beta= 0.50
     Davidson diagonalization with overlap
     ethr =  2.22E-10,  avg # of iterations =  1.0

     total cpu time spent up to now is       32.6 secs

     total energy              =     -89.43955700 Ry
     Harris-Foulkes estimate   =     -89.43955702 Ry
     estimated scf accuracy    <       0.00000003 Ry

     iteration #  7     ecut=    40.00 Ry     beta= 0.50
     Davidson diagonalization with overlap
     ethr =  9.85E-11,  avg # of iterations =  2.3

     total cpu time spent up to now is       33.9 secs

     End of self-consistent calculation

          k = 0.0000 0.0000 0.0000 (  1551 PWs)   bands (ev):

   -10.3987  -5.8839  -5.8836  -2.0889  -1.2826  -1.2823   3.9384   3.9394
     3.9419   3.9421   4.8676   5.3844   5.3872   5.4623  10.1854  11.5135
    12.0691  12.0691  12.4042  12.4112

          k =-0.0000 0.0000 0.3244 (  1534 PWs)   bands (ev):

    -9.7283  -7.9624  -4.1345  -2.7092  -0.5368  -0.5366   1.5519   1.5521
     2.9487   4.2014   5.7521   7.0540   7.9114   7.9134   8.3407   9.1037
    10.6515  10.6535  13.0104  14.0669

          k =-0.0000 0.3317 0.0000 (  1534 PWs)   bands (ev):

    -9.6161  -7.5303  -5.1849  -3.3810  -0.4540  -0.3506   1.8739   1.9996
     4.2870   4.4390   4.9133   6.9752   7.7676   8.3109   8.5336   9.9612
    10.9928  11.2279  11.4480  14.8985

          k =-0.0000 0.3317 0.3244 (  1562 PWs)   bands (ev):

    -9.0350  -7.8500  -5.2749  -4.2042  -0.0019   0.2520   1.0563   1.8067
     3.8003   5.3416   5.4157   5.5239   6.6336   7.1553  10.2759  10.6084
    10.9140  12.6608  13.8390  15.4423

          k =-0.0000 0.3317-0.3244 (  1562 PWs)   bands (ev):

    -9.0350  -7.8499  -5.2749  -4.2042  -0.0019   0.2520   1.0562   1.8068
     3.8002   5.3415   5.4157   5.5239   6.6336   7.1553  10.2759  10.6084
    10.9140  12.6608  13.8391  15.4423

          k = 0.3316-0.0000-0.0000 (  1534 PWs)   bands (ev):

    -9.6161  -7.5304  -5.1847  -3.3810  -0.4538  -0.3508   1.8741   1.9994
     4.2869   4.4389   4.9135   6.9751   7.7678   8.3109   8.5335   9.9613
    10.9928  11.2279  11.4480  14.8981

          k = 0.3316-0.0000 0.3244 (  1562 PWs)   bands (ev):

    -9.0350  -7.8500  -5.2748  -4.2042  -0.0020   0.2522   1.0561   1.8070
     3.8004   5.3413   5.4158   5.5240   6.6337   7.1551  10.2758  10.6084
    10.9138  12.6608  13.8390  15.4420

          k = 0.3317-0.0000-0.3244 (  1562 PWs)   bands (ev):

    -9.0350  -7.8500  -5.2748  -4.2042  -0.0020   0.2522   1.0561   1.8069
     3.8004   5.3413   5.4157   5.5240   6.6337   7.1551  10.2758  10.6084
    10.9138  12.6608  13.8390  15.4420

          k = 0.3316 0.3316 0.0000 (  1562 PWs)   bands (ev):

    -8.8448  -6.7942  -6.7937  -4.8581   0.4955   0.4963   2.6812   2.7453
     2.8780   3.0423   5.0579   5.0598   8.5818   8.5823   9.3893  10.7390
    12.0101  12.8654  14.3418  14.8600

          k = 0.3316 0.3316 0.3244 (  1544 PWs)   bands (ev):

    -8.3373  -7.3632  -6.0399  -5.1332  -1.2319  -0.1656   1.3060   2.2790
     3.2513   4.2936   6.6365   7.1806   8.6582   8.8416   9.3022   9.7493
    11.7323  12.7197  14.7004  14.9303

          k = 0.3316 0.3316-0.3244 (  1544 PWs)   bands (ev):

    -8.3373  -7.3632  -6.0399  -5.1332  -1.2319  -0.1656   1.3060   2.2790
     3.2513   4.2936   6.6365   7.1806   8.6582   8.8416   9.3022   9.7493
    11.7323  12.7197  14.7004  14.9303

          k = 0.3317-0.3317-0.0000 (  1562 PWs)   bands (ev):

    -8.8445  -6.7946  -6.7940  -4.8576   0.4958   0.4966   2.6818   2.7440
     2.8766   3.0429   5.0584   5.0603   8.5830   8.5834   9.3877  10.7389
    12.0108  12.8649  14.3408  14.8604

          k = 0.3317-0.3317 0.3244 (  1544 PWs)   bands (ev):

    -8.3371  -7.3632  -6.0402  -5.1330  -1.2320  -0.1661   1.3061   2.2792
     3.2524   4.2936   6.6365   7.1804   8.6571   8.8426   9.3013   9.7486
    11.7327  12.7204  14.6996  14.9296

          k = 0.3317-0.3317-0.3244 (  1544 PWs)   bands (ev):

    -8.3371  -7.3633  -6.0402  -5.1330  -1.2320  -0.1660   1.3061   2.2792
     3.2525   4.2936   6.6365   7.1805   8.6571   8.8426   9.3013   9.7486
    11.7327  12.7204  14.6996  14.9296

     the Fermi energy is    10.7663 ev

!    total energy              =     -89.43955701 Ry
     Harris-Foulkes estimate   =     -89.43955701 Ry
     estimated scf accuracy    <          7.2E-10 Ry

     The total energy is the sum of the following terms:

     one-electron contribution =      16.46084407 Ry
     hartree contribution      =      11.85789492 Ry
     xc contribution           =     -27.17083288 Ry
     ewald contribution        =     -90.58535973 Ry
     smearing contrib. (-TS)   =      -0.00210339 Ry

     convergence has been achieved in   7 iterations

     Forces acting on atoms (cartesian axes, Ry/au):

     atom    1 type  1   force =    -0.00014066   -0.00000653   -0.00016679
     atom    2 type  1   force =    -0.00000818   -0.00012944    0.00016644
     atom    3 type  1   force =    -0.00015837   -0.00001000   -0.00017096
     atom    4 type  1   force =    -0.00000886   -0.00014541    0.00017077
     atom    5 type  1   force =     0.00016834   -0.00000137   -0.00016325
     atom    6 type  1   force =    -0.00000210    0.00015610    0.00016289
     atom    7 type  1   force =    -0.00000221    0.00013909    0.00015898
     atom    8 type  1   force =     0.00015204   -0.00000244   -0.00015809

     Total force =     0.000629     Total SCF correction =     0.000022


     Computing stress (Cartesian axis) and pressure

          total   stress  (Ry/bohr**3)                   (kbar)     P=        2.32
   0.00001249   0.00000552  -0.00000003            1.84        0.81       -0.00
   0.00000552   0.00001286   0.00000003            0.81        1.89        0.00
  -0.00000003   0.00000003   0.00002201           -0.00        0.00        3.24


     number of scf cycles    =   5
     number of bfgs steps    =   4

     enthalpy old            =     -89.4394740615 Ry
     enthalpy new            =     -89.4395314501 Ry

     CASE: enthalpy_new < enthalpy_old

     new trust radius        =       0.0036397957 bohr
     new conv_thr            =       0.0000000100 Ry

     new unit-cell volume =    376.31284 a.u.^3 (    55.76381 Ang^3 )
     density =      2.85870 g/cm^3

CELL_PARAMETERS (bohr)
   7.164549689   0.001627287   0.000004914
   0.001627307   7.164503471  -0.000005510
   0.000004001  -0.000004534   7.331182954

ATOMIC_POSITIONS (crystal)
C             0.7499482794        0.4999978516        0.3749212998
C            -0.0000026928        0.2499518429        0.1250783519
C             0.2499403380       -0.0000032576        0.8749190569
C             0.4999971168        0.7499451188        0.6250811779
C             0.7500626493        0.0000001697        0.8749215107
C             0.4999994048        0.2500585459        0.6250783715
C            -0.0000009047        0.7500511785        0.1250759920
C             0.2500558093        0.4999985501        0.3749242392



     Writing output data file ./pp.save/
     NEW-OLD atomic charge density approx. for the potential
     extrapolated charge   32.02816, renormalised to   32.00000

     total cpu time spent up to now is       34.0 secs

     Self-consistent Calculation

     iteration #  1     ecut=    40.00 Ry     beta= 0.50
     Davidson diagonalization with overlap
     ethr =  1.00E-06,  avg # of iterations =  2.0

     Threshold (ethr) on eigenvalues was too large:
     Diagonalizing with lowered threshold

     Davidson diagonalization with overlap
     ethr =  1.90E-08,  avg # of iterations =  3.1

     total cpu time spent up to now is       36.5 secs

     total energy              =     -89.43955456 Ry
     Harris-Foulkes estimate   =     -89.44985649 Ry
     estimated scf accuracy    <       0.00000632 Ry

     iteration #  2     ecut=    40.00 Ry     beta= 0.50
     Davidson diagonalization with overlap
     ethr =  1.98E-08,  avg # of iterations =  3.0

     total cpu time spent up to now is       38.1 secs

     total energy              =     -89.43956378 Ry
     Harris-Foulkes estimate   =     -89.43956468 Ry
     estimated scf accuracy    <       0.00000276 Ry

     iteration #  3     ecut=    40.00 Ry     beta= 0.50
     Davidson diagonalization with overlap
     ethr =  8.61E-09,  avg # of iterations =  1.0

     total cpu time spent up to now is       39.1 secs

     total energy              =     -89.43956343 Ry
     Harris-Foulkes estimate   =     -89.43956391 Ry
     estimated scf accuracy    <       0.00000083 Ry

     iteration #  4     ecut=    40.00 Ry     beta= 0.50
     Davidson diagonalization with overlap
     ethr =  2.60E-09,  avg # of iterations =  2.1

     total cpu time spent up to now is       40.4 secs

     total energy              =     -89.43956360 Ry
     Harris-Foulkes estimate   =     -89.43956360 Ry
     estimated scf accuracy    <       0.00000001 Ry

     iteration #  5     ecut=    40.00 Ry     beta= 0.50
     Davidson diagonalization with overlap
     ethr =  3.94E-11,  avg # of iterations =  3.0

     total cpu time spent up to now is       42.0 secs

     total energy              =     -89.43956360 Ry
     Harris-Foulkes estimate   =     -89.43956361 Ry
     estimated scf accuracy    <       0.00000001 Ry

     iteration #  6     ecut=    40.00 Ry     beta= 0.50
     Davidson diagonalization with overlap
     ethr =  3.94E-11,  avg # of iterations =  1.0

     total cpu time spent up to now is       43.0 secs

     End of self-consistent calculation

          k = 0.0000 0.0000 0.0000 (  1551 PWs)   bands (ev):

   -10.4031  -5.8943  -5.8922  -2.0963  -1.2852  -1.2850   3.9258   3.9302
     3.9302   3.9305   4.8672   5.3665   5.3790   5.4476  10.1582  11.4951
    12.0559  12.0560  12.3889  12.3998

          k =-0.0000 0.0000 0.3241 (  1534 PWs)   bands (ev):

    -9.7341  -7.9710  -4.1425  -2.7168  -0.5409  -0.5407   1.5441   1.5442
     2.9423   4.1915   5.7501   7.0323   7.8945   7.9038   8.3341   9.0833
    10.6349  10.6441  12.9825  14.0480

          k =-0.0001 0.3317 0.0000 (  1534 PWs)   bands (ev):

    -9.6206  -7.5363  -5.1940  -3.3892  -0.4567  -0.3605   1.8705   1.9872
     4.2741   4.4239   4.9024   6.9666   7.7561   8.2993   8.5220   9.9478
    10.9791  11.2073  11.4333  14.8878

          k =-0.0001 0.3317 0.3241 (  1562 PWs)   bands (ev):

    -9.0409  -7.8577  -5.2819  -4.2120  -0.0089   0.2477   1.0487   1.7998
     3.7958   5.3296   5.4002   5.5169   6.6201   7.1427  10.2600  10.5946
    10.8992  12.6465  13.8184  15.4317

          k =-0.0001 0.3317-0.3241 (  1562 PWs)   bands (ev):

    -9.0409  -7.8576  -5.2819  -4.2120  -0.0089   0.2477   1.0487   1.7999
     3.7958   5.3295   5.4003   5.5169   6.6201   7.1427  10.2600  10.5946
    10.8992  12.6465  13.8184  15.4316

          k = 0.3317-0.0001-0.0000 (  1534 PWs)   bands (ev):

    -9.6206  -7.5363  -5.1939  -3.3892  -0.4566  -0.3606   1.8705   1.9871
     4.2741   4.4239   4.9025   6.9666   7.7561   8.2993   8.5220   9.9478
    10.9791  11.2073  11.4333  14.8876

          k = 0.3317-0.0001 0.3241 (  1562 PWs)   bands (ev):

    -9.0409  -7.8577  -5.2818  -4.2120  -0.0089   0.2478   1.0486   1.8000
     3.7959   5.3294   5.4003   5.5169   6.6202   7.1426  10.2599  10.5946
    10.8991  12.6465  13.8184  15.4315

          k = 0.3317-0.0001-0.3241 (  1562 PWs)   bands (ev):

    -9.0409  -7.8577  -5.2818  -4.2120  -0.0089   0.2478   1.0486   1.7999
     3.7959   5.3295   5.4003   5.5169   6.6202   7.1426  10.2600  10.5946
    10.8991  12.6465  13.8184  15.4315

          k = 0.3316 0.3316 0.0000 (  1562 PWs)   bands (ev):

    -8.8500  -6.8005  -6.7982  -4.8657   0.4850   0.4863   2.6757   2.7329
     2.8647   3.0315   5.0444   5.0477   8.5701   8.5710   9.3824  10.7262
    11.9946  12.8504  14.3367  14.8458

          k = 0.3316 0.3316 0.3241 (  1544 PWs)   bands (ev):

    -8.3437  -7.3705  -6.0457  -5.1407  -1.2376  -0.1726   1.2991   2.2721
     3.2373   4.2844   6.6213   7.1729   8.6516   8.8264   9.2887   9.7356
    11.7130  12.7019  14.6936  14.9151

          k = 0.3316 0.3316-0.3241 (  1544 PWs)   bands (ev):

    -8.3437  -7.3705  -6.0457  -5.1407  -1.2376  -0.1726   1.2991   2.2721
     3.2373   4.2844   6.6213   7.1729   8.6516   8.8264   9.2887   9.7356
    11.7130  12.7019  14.6936  14.9151

          k = 0.3317-0.3317-0.0000 (  1562 PWs)   bands (ev):

    -8.8489  -6.8022  -6.7998  -4.8632   0.4862   0.4873   2.6782   2.7270
     2.8583   3.0341   5.0468   5.0500   8.5755   8.5764   9.3752  10.7256
    11.9979  12.8480  14.3323  14.8480

          k = 0.3317-0.3317 0.3241 (  1544 PWs)   bands (ev):

    -8.3429  -7.3709  -6.0470  -5.1399  -1.2382  -0.1745   1.2999   2.2730
     3.2425   4.2845   6.6211   7.1724   8.6466   8.8308   9.2846   9.7324
    11.7149  12.7053  14.6900  14.9115

          k = 0.3317-0.3317-0.3241 (  1544 PWs)   bands (ev):

    -8.3429  -7.3710  -6.0470  -5.1400  -1.2382  -0.1745   1.2999   2.2730
     3.2425   4.2845   6.6211   7.1724   8.6466   8.8308   9.2846   9.7324
    11.7149  12.7053  14.6900  14.9115

     the Fermi energy is    10.7529 ev

!    total energy              =     -89.43956360 Ry
     Harris-Foulkes estimate   =     -89.43956360 Ry
     estimated scf accuracy    <          4.9E-09 Ry

     The total energy is the sum of the following terms:

     one-electron contribution =      16.40982517 Ry
     hartree contribution      =      11.86919137 Ry
     xc contribution           =     -27.16652667 Ry
     ewald contribution        =     -90.54991017 Ry
     smearing contrib. (-TS)   =      -0.00214330 Ry

     convergence has been achieved in   6 iterations

     Forces acting on atoms (cartesian axes, Ry/au):

     atom    1 type  1   force =    -0.00022743   -0.00001580   -0.00027673
     atom    2 type  1   force =    -0.00001794   -0.00020348    0.00027615
     atom    3 type  1   force =    -0.00025584   -0.00001969   -0.00028636
     atom    4 type  1   force =    -0.00001873   -0.00022938    0.00028596
     atom    5 type  1   force =     0.00027821   -0.00000307   -0.00026914
     atom    6 type  1   force =    -0.00000479    0.00025220    0.00026877
     atom    7 type  1   force =    -0.00000531    0.00022502    0.00025956
     atom    8 type  1   force =     0.00025184   -0.00000579   -0.00025821

     Total force =     0.001031     Total SCF correction =     0.000007


     Computing stress (Cartesian axis) and pressure

          total   stress  (Ry/bohr**3)                   (kbar)     P=        0.23
   0.00000203   0.00002505  -0.00000001            0.30        3.68       -0.00
   0.00002505   0.00000219   0.00000002            3.68        0.32        0.00
  -0.00000001   0.00000002   0.00000039           -0.00        0.00        0.06


     number of scf cycles    =   6
     number of bfgs steps    =   5

     enthalpy old            =     -89.4395314501 Ry
     enthalpy new            =     -89.4395380164 Ry

     CASE: enthalpy_new < enthalpy_old

     new trust radius        =       0.0109139518 bohr
     new conv_thr            =       0.0000000100 Ry

     new unit-cell volume =    377.30601 a.u.^3 (    55.91098 Ang^3 )
     density =      2.85117 g/cm^3

CELL_PARAMETERS (bohr)
   7.163835542   0.010519642  -0.000008764
   0.010519769   7.163990859   0.000009256
  -0.000009329   0.000009850   7.351805932

ATOMIC_POSITIONS (crystal)
C             0.7498380650        0.4999920906        0.3747854370
C            -0.0000097809        0.2498512863        0.1252139462
C             0.2498162701       -0.0000117607        0.8747793032
C             0.4999894871        0.7498320348        0.6252207379
C             0.7501954456       -0.0000011361        0.8747886499
C             0.4999975415        0.2501808389        0.6252109597
C            -0.0000028633        0.7501601652        0.1252049282
C             0.2501758348        0.4999964810        0.3747960379



     Writing output data file ./pp.save/
     NEW-OLD atomic charge density approx. for the potential
     extrapolated charge   32.08423, renormalised to   32.00000

     total cpu time spent up to now is       43.0 secs

     Self-consistent Calculation

     iteration #  1     ecut=    40.00 Ry     beta= 0.50
     Davidson diagonalization with overlap
     ethr =  1.00E-06,  avg # of iterations =  4.2

     total cpu time spent up to now is       45.3 secs

     total energy              =     -89.43954362 Ry
     Harris-Foulkes estimate   =     -89.47019462 Ry
     estimated scf accuracy    <       0.00006227 Ry

     iteration #  2     ecut=    40.00 Ry     beta= 0.50
     Davidson diagonalization with overlap
     ethr =  1.95E-07,  avg # of iterations =  3.1

     total cpu time spent up to now is       47.2 secs

     total energy              =     -89.43962832 Ry
     Harris-Foulkes estimate   =     -89.43963679 Ry
     estimated scf accuracy    <       0.00002592 Ry

     iteration #  3     ecut=    40.00 Ry     beta= 0.50
     Davidson diagonalization with overlap
     ethr =  8.10E-08,  avg # of iterations =  1.0

     total cpu time spent up to now is       48.3 secs

     total energy              =     -89.43962524 Ry
     Harris-Foulkes estimate   =     -89.43962967 Ry
     estimated scf accuracy    <       0.00000763 Ry

     iteration #  4     ecut=    40.00 Ry     beta= 0.50
     Davidson diagonalization with overlap
     ethr =  2.38E-08,  avg # of iterations =  2.1

     total cpu time spent up to now is       50.0 secs

     total energy              =     -89.43962688 Ry
     Harris-Foulkes estimate   =     -89.43962698 Ry
     estimated scf accuracy    <       0.00000029 Ry

     iteration #  5     ecut=    40.00 Ry     beta= 0.50
     Davidson diagonalization with overlap
     ethr =  9.16E-10,  avg # of iterations =  2.5

     total cpu time spent up to now is       51.6 secs

     total energy              =     -89.43962688 Ry
     Harris-Foulkes estimate   =     -89.43962692 Ry
     estimated scf accuracy    <       0.00000007 Ry

     iteration #  6     ecut=    40.00 Ry     beta= 0.50
     Davidson diagonalization with overlap
     ethr =  2.13E-10,  avg # of iterations =  2.0

     total cpu time spent up to now is       53.2 secs

     End of self-consistent calculation

          k = 0.0000 0.0000 0.0000 (  1551 PWs)   bands (ev):

   -10.4166  -5.9272  -5.9172  -2.1192  -1.2938  -1.2931   3.8810   3.8944
     3.8963   3.9092   4.8655   5.2929   5.3734   5.4035  10.0765  11.4397
    12.0157  12.0161  12.3398  12.3677

          k = 0.0000-0.0000 0.3232 (  1534 PWs)   bands (ev):

    -9.7517  -7.9975  -4.1674  -2.7402  -0.5538  -0.5532   1.5198   1.5206
     2.9229   4.1617   5.7435   6.9666   7.8291   7.8887   8.3142   9.0220
    10.5705  10.6294  12.8991  13.9911

          k =-0.0005 0.3317-0.0000 (  1534 PWs)   bands (ev):

    -9.6349  -7.5548  -5.2219  -3.4144  -0.4653  -0.3906   1.8596   1.9495
     4.2354   4.3783   4.8692   6.9406   7.7209   8.2627   8.4882   9.9069
    10.9381  11.1449  11.3891  14.8556

          k =-0.0005 0.3317 0.3232 (  1562 PWs)   bands (ev):

    -9.0592  -7.8812  -5.3033  -4.2358  -0.0303   0.2344   1.0256   1.7786
     3.7820   5.2914   5.3538   5.4969   6.5799   7.1046  10.2120  10.5509
    10.8562  12.6030  13.7558  15.3993

          k =-0.0005 0.3317-0.3232 (  1562 PWs)   bands (ev):

    -9.0592  -7.8813  -5.3033  -4.2358  -0.0304   0.2344   1.0256   1.7785
     3.7820   5.2915   5.3537   5.4969   6.5799   7.1046  10.2120  10.5509
    10.8562  12.6030  13.7558  15.3993

          k = 0.3317-0.0005 0.0000 (  1534 PWs)   bands (ev):

    -9.6348  -7.5547  -5.2221  -3.4145  -0.4657  -0.3904   1.8594   1.9498
     4.2355   4.3784   4.8689   6.9408   7.7207   8.2626   8.4885   9.9069
    10.9380  11.1448  11.3891  14.8562

          k = 0.3317-0.0005 0.3232 (  1562 PWs)   bands (ev):

    -9.0591  -7.8812  -5.3034  -4.2358  -0.0302   0.2341   1.0258   1.7782
     3.7818   5.2918   5.3536   5.4967   6.5797   7.1049  10.2121  10.5509
    10.8563  12.6030  13.7559  15.3997

          k = 0.3317-0.0005-0.3232 (  1562 PWs)   bands (ev):

    -9.0592  -7.8811  -5.3034  -4.2358  -0.0302   0.2341   1.0258   1.7783
     3.7818   5.2918   5.3537   5.4967   6.5797   7.1049  10.2121  10.5509
    10.8563  12.6030  13.7559  15.3997

          k = 0.3312 0.3312-0.0000 (  1562 PWs)   bands (ev):

    -8.8678  -6.8185  -6.8085  -4.8928   0.4509   0.4545   2.6544   2.7041
     2.8347   2.9946   4.9989   5.0087   8.5259   8.5292   9.3724  10.6875
    11.9431  12.8083  14.3281  14.7990

          k = 0.3312 0.3312 0.3232 (  1544 PWs)   bands (ev):

    -8.3645  -7.3924  -6.0614  -5.1652  -1.2543  -0.1908   1.2768   2.2489
     3.1871   4.2564   6.5753   7.1504   8.6395   8.7733   9.2544   9.6990
    11.6525  12.6430  14.6784  14.8742

          k = 0.3312 0.3312-0.3232 (  1544 PWs)   bands (ev):

    -8.3645  -7.3924  -6.0614  -5.1652  -1.2543  -0.1908   1.2768   2.2489
     3.1871   4.2564   6.5753   7.1504   8.6395   8.7733   9.2544   9.6990
    11.6525  12.6430  14.6784  14.8742

          k = 0.3322-0.3322 0.0000 (  1562 PWs)   bands (ev):

    -8.8607  -6.8292  -6.8191  -4.8770   0.4584   0.4613   2.6662   2.6711
     2.7933   3.0113   5.0142   5.0235   8.5606   8.5637   9.3262  10.6844
    11.9642  12.7933  14.2997  14.8124

          k = 0.3322-0.3322 0.3232 (  1544 PWs)   bands (ev):

    -8.3594  -7.3952  -6.0701  -5.1602  -1.2581  -0.2033   1.2819   2.2554
     3.2202   4.2567   6.5740   7.1466   8.6069   8.8017   9.2279   9.6784
    11.6641  12.6647  14.6552  14.8504

          k = 0.3322-0.3322-0.3232 (  1544 PWs)   bands (ev):

    -8.3594  -7.3952  -6.0702  -5.1602  -1.2581  -0.2033   1.2819   2.2554
     3.2202   4.2568   6.5740   7.1466   8.6069   8.8017   9.2279   9.6784
    11.6641  12.6647  14.6552  14.8504

     the Fermi energy is    10.7116 ev

!    total energy              =     -89.43962689 Ry
     Harris-Foulkes estimate   =     -89.43962689 Ry
     estimated scf accuracy    <          4.4E-09 Ry

     The total energy is the sum of the following terms:

     one-electron contribution =      16.25695239 Ry
     hartree contribution      =      11.90339681 Ry
     xc contribution           =     -27.15376447 Ry
     ewald contribution        =     -90.44401703 Ry
     smearing contrib. (-TS)   =      -0.00219459 Ry

     convergence has been achieved in   6 iterations

     Forces acting on atoms (cartesian axes, Ry/au):

     atom    1 type  1   force =    -0.00060907   -0.00005297   -0.00076025
     atom    2 type  1   force =    -0.00005690   -0.00052449    0.00075814
     atom    3 type  1   force =    -0.00068849   -0.00005858   -0.00078599
     atom    4 type  1   force =    -0.00005787   -0.00059763    0.00078472
     atom    5 type  1   force =     0.00076950   -0.00001834   -0.00072348
     atom    6 type  1   force =    -0.00002488    0.00067744    0.00072364
     atom    7 type  1   force =    -0.00002657    0.00060169    0.00069864
     atom    8 type  1   force =     0.00069427   -0.00002711   -0.00069542

     Total force =     0.002792     Total SCF correction =     0.000104


     Computing stress (Cartesian axis) and pressure

          total   stress  (Ry/bohr**3)                   (kbar)     P=       -5.82
  -0.00002849   0.00016108   0.00000002           -4.19       23.70        0.00
   0.00016108  -0.00002904  -0.00000004           23.70       -4.27       -0.01
   0.00000002  -0.00000004  -0.00006115            0.00       -0.01       -9.00


     number of scf cycles    =   7
     number of bfgs steps    =   6

     enthalpy old            =     -89.4395380164 Ry
     enthalpy new            =     -89.4396012407 Ry

     CASE: enthalpy_new < enthalpy_old


     WARNING: bfgs curvature condition failed, Theta= 0.147
     new trust radius        =       0.0163465332 bohr
     new conv_thr            =       0.0000000100 Ry

     new unit-cell volume =    378.75763 a.u.^3 (    56.12609 Ang^3 )
     density =      2.84024 g/cm^3

CELL_PARAMETERS (bohr)
   7.162447573   0.025100631  -0.000027527
   0.025100685   7.162879849   0.000028917
  -0.000027629   0.000029012   7.382740401

ATOMIC_POSITIONS (crystal)
C             0.7496852987        0.4999842291        0.3745969365
C            -0.0000194821        0.2497120598        0.1254020597
C             0.2496441706       -0.0000234598        0.8745856674
C             0.4999790362        0.7496753258        0.6254141046
C             0.7503797755       -0.0000031983        0.8746046879
C             0.4999947010        0.2503504295        0.6253945603
C            -0.0000058131        0.7503111833        0.1253837148
C             0.2503423132        0.4999934306        0.3746182689



     Writing output data file ./pp.save/
     NEW-OLD atomic charge density approx. for the potential
     extrapolated charge   32.12264, renormalised to   32.00000

     total cpu time spent up to now is       53.3 secs

     Self-consistent Calculation

     iteration #  1     ecut=    40.00 Ry     beta= 0.50
     Davidson diagonalization with overlap
     ethr =  1.00E-06,  avg # of iterations =  5.1

     total cpu time spent up to now is       56.6 secs

     total energy              =     -89.43972710 Ry
     Harris-Foulkes estimate   =     -89.48394084 Ry
     estimated scf accuracy    <       0.00014098 Ry

     iteration #  2     ecut=    40.00 Ry     beta= 0.50
     Davidson diagonalization with overlap
     ethr =  4.41E-07,  avg # of iterations =  2.9

     total cpu time spent up to now is       58.7 secs

     total energy              =     -89.43990546 Ry
     Harris-Foulkes estimate   =     -89.43992336 Ry
     estimated scf accuracy    <       0.00005420 Ry

     iteration #  3     ecut=    40.00 Ry     beta= 0.50
     Davidson diagonalization with overlap
     ethr =  1.69E-07,  avg # of iterations =  1.4

     total cpu time spent up to now is       60.1 secs

     total energy              =     -89.43989937 Ry
     Harris-Foulkes estimate   =     -89.43990838 Ry
     estimated scf accuracy    <       0.00001566 Ry

     iteration #  4     ecut=    40.00 Ry     beta= 0.50
     Davidson diagonalization with overlap
     ethr =  4.89E-08,  avg # of iterations =  2.1

     total cpu time spent up to now is       61.9 secs

     total energy              =     -89.43990265 Ry
     Harris-Foulkes estimate   =     -89.43990281 Ry
     estimated scf accuracy    <       0.00000059 Ry

     iteration #  5     ecut=    40.00 Ry     beta= 0.50
     Davidson diagonalization with overlap
     ethr =  1.85E-09,  avg # of iterations =  2.5

     total cpu time spent up to now is       63.7 secs

     total energy              =     -89.43990262 Ry
     Harris-Foulkes estimate   =     -89.43990271 Ry
     estimated scf accuracy    <       0.00000022 Ry

     iteration #  6     ecut=    40.00 Ry     beta= 0.50
     Davidson diagonalization with overlap
     ethr =  6.93E-10,  avg # of iterations =  1.1

     total cpu time spent up to now is       65.1 secs

     total energy              =     -89.43990260 Ry
     Harris-Foulkes estimate   =     -89.43990264 Ry
     estimated scf accuracy    <       0.00000005 Ry

     iteration #  7     ecut=    40.00 Ry     beta= 0.50
     Davidson diagonalization with overlap
     ethr =  1.59E-10,  avg # of iterations =  2.6

     total cpu time spent up to now is       67.2 secs

     End of self-consistent calculation

          k = 0.0000 0.0000 0.0000 (  1551 PWs)   bands (ev):

   -10.4368  -5.9756  -5.9551  -2.1533  -1.3061  -1.3043   3.8133   3.8417
     3.8460   3.8800   4.8635   5.1802   5.3386   5.3711   9.9566  11.3585
    11.9565  11.9570  12.2679  12.3196

          k = 0.0000-0.0000 0.3219 (  1534 PWs)   bands (ev):

    -9.7779  -8.0367  -4.2043  -2.7751  -0.5726  -0.5708   1.4841   1.4862
     2.8947   4.1180   5.7336   6.8685   7.7297   7.8707   8.2865   8.9324
    10.4722  10.6118  12.7762  13.9079

          k =-0.0012 0.3317-0.0000 (  1534 PWs)   bands (ev):

    -9.6561  -7.5824  -5.2635  -3.4519  -0.4775  -0.4351   1.8439   1.8936
     4.1782   4.3111   4.8207   6.9030   7.6692   8.2053   8.4435   9.8460
    10.8793  11.0526  11.3251  14.8111

          k =-0.0012 0.3317 0.3219 (  1562 PWs)   bands (ev):

    -9.0864  -7.9163  -5.3352  -4.2711  -0.0623   0.2155   0.9915   1.7472
     3.7618   5.2302   5.2855   5.4720   6.5220   7.0492  10.1416  10.4808
    10.7993  12.5387  13.6632  15.3524

          k =-0.0012 0.3317-0.3219 (  1562 PWs)   bands (ev):

    -9.0864  -7.9164  -5.3351  -4.2711  -0.0623   0.2156   0.9915   1.7471
     3.7619   5.2302   5.2854   5.4720   6.5221   7.0491  10.1416  10.4808
    10.7993  12.5386  13.6631  15.3525

          k = 0.3318-0.0012 0.0000 (  1534 PWs)   bands (ev):

    -9.6560  -7.5820  -5.2640  -3.4521  -0.4784  -0.4345   1.8433   1.8943
     4.1788   4.3114   4.8198   6.9033   7.6686   8.2051   8.4442   9.8458
    10.8791  11.0522  11.3251  14.8127

          k = 0.3318-0.0012 0.3219 (  1562 PWs)   bands (ev):

    -9.0862  -7.9161  -5.3354  -4.2712  -0.0619   0.2147   0.9921   1.7463
     3.7612   5.2311   5.2852   5.4716   6.5216   7.0500  10.1421  10.4806
    10.7998  12.5386  13.6632  15.3536

          k = 0.3318-0.0012-0.3219 (  1562 PWs)   bands (ev):

    -9.0863  -7.9160  -5.3354  -4.2712  -0.0619   0.2147   0.9920   1.7464
     3.7611   5.2311   5.2853   5.4715   6.5215   7.0501  10.1420  10.4806
    10.7997  12.5386  13.6632  15.3536

          k = 0.3306 0.3306-0.0000 (  1562 PWs)   bands (ev):

    -8.8946  -6.8440  -6.8238  -4.9338   0.3997   0.4069   2.6220   2.6637
     2.7937   2.9392   4.9315   4.9501   8.4596   8.4661   9.3615  10.6289
    11.8694  12.7463  14.3191  14.7298

          k = 0.3306 0.3306 0.3219 (  1544 PWs)   bands (ev):

    -8.3958  -7.4247  -6.0842  -5.2018  -1.2785  -0.2166   1.2438   2.2131
     3.1125   4.2149   6.5072   7.1177   8.6250   8.6933   9.2057   9.6461
    11.5637  12.5553  14.6591  14.8151

          k = 0.3306 0.3306-0.3219 (  1544 PWs)   bands (ev):

    -8.3958  -7.4247  -6.0842  -5.2018  -1.2785  -0.2166   1.2438   2.2131
     3.1125   4.2149   6.5072   7.1177   8.6250   8.6933   9.2057   9.6461
    11.5637  12.5553  14.6591  14.8151

          k = 0.3329-0.3329 0.0000 (  1562 PWs)   bands (ev):

    -8.8779  -6.8695  -6.8487  -4.8965   0.4178   0.4232   2.5734   2.6624
     2.6953   2.9786   4.9676   4.9854   8.5421   8.5479   9.2522  10.6226
    11.9176  12.7122  14.2516  14.7582

          k = 0.3329-0.3329 0.3219 (  1544 PWs)   bands (ev):

    -8.3836  -7.4314  -6.1049  -5.1900  -1.2877  -0.2466   1.2556   2.2299
     3.1896   4.2164   6.5037   7.1082   8.5476   8.7612   9.1431   9.5973
    11.5906  12.6065  14.6039  14.7574

          k = 0.3329-0.3329-0.3219 (  1544 PWs)   bands (ev):

    -8.3836  -7.4313  -6.1050  -5.1900  -1.2877  -0.2466   1.2555   2.2300
     3.1894   4.2165   6.5038   7.1082   8.5477   8.7612   9.1431   9.5973
    11.5907  12.6064  14.6039  14.7574

     the Fermi energy is    10.6500 ev

!    total energy              =     -89.43990262 Ry
     Harris-Foulkes estimate   =     -89.43990262 Ry
     estimated scf accuracy    <          6.4E-09 Ry

     The total energy is the sum of the following terms:

     one-electron contribution =      16.03275313 Ry
     hartree contribution      =      11.95352066 Ry
     xc contribution           =     -27.13517542 Ry
     ewald contribution        =     -90.28895419 Ry
     smearing contrib. (-TS)   =      -0.00204680 Ry

     convergence has been achieved in   7 iterations

     Forces acting on atoms (cartesian axes, Ry/au):

     atom    1 type  1   force =    -0.00115822   -0.00007704   -0.00144543
     atom    2 type  1   force =    -0.00008221   -0.00098806    0.00144113
     atom    3 type  1   force =    -0.00131597   -0.00008361   -0.00149275
     atom    4 type  1   force =    -0.00008243   -0.00113421    0.00148985
     atom    5 type  1   force =     0.00147356   -0.00006312   -0.00136981
     atom    6 type  1   force =    -0.00007783    0.00128797    0.00137069
     atom    7 type  1   force =    -0.00007994    0.00113716    0.00132508
     atom    8 type  1   force =     0.00132303   -0.00007910   -0.00131876

     Total force =     0.005303     Total SCF correction =     0.000048


     Computing stress (Cartesian axis) and pressure

          total   stress  (Ry/bohr**3)                   (kbar)     P=      -14.62
  -0.00007365   0.00037680   0.00000008          -10.83       55.43        0.01
   0.00037680  -0.00007513  -0.00000009           55.43      -11.05       -0.01
   0.00000008  -0.00000009  -0.00014928            0.01       -0.01      -21.96


     number of scf cycles    =   8
     number of bfgs steps    =   7

     enthalpy old            =     -89.4396012407 Ry
     enthalpy new            =     -89.4398768693 Ry

     CASE: enthalpy_new < enthalpy_old


     WARNING: bfgs curvature condition failed, Theta= 0.154
     new trust radius        =       0.0244639841 bohr
     new conv_thr            =       0.0000000149 Ry

     new unit-cell volume =    380.90638 a.u.^3 (    56.44450 Ang^3 )
     density =      2.82422 g/cm^3

CELL_PARAMETERS (bohr)
   7.160175828   0.047125364  -0.000054966
   0.047124725   7.161016952   0.000058141
  -0.000054436   0.000057538   7.429142105

ATOMIC_POSITIONS (crystal)
C             0.7494630259        0.4999735554        0.3743228213
C            -0.0000328064        0.2495093940        0.1256756097
C             0.2493936237       -0.0000397318        0.8743041978
C             0.4999646325        0.7494470822        0.6256951725
C             0.7506478604       -0.0000067286        0.8743371417
C             0.4999900118        0.2505971605        0.6256615791
C            -0.0000106259        0.7505307385        0.1256438592
C             0.2505842780        0.4999885298        0.3743596186



     Writing output data file ./pp.save/
     NEW-OLD atomic charge density approx. for the potential
     extrapolated charge   32.18052, renormalised to   32.00000

     total cpu time spent up to now is       67.3 secs

     Self-consistent Calculation

     iteration #  1     ecut=    40.00 Ry     beta= 0.50
     Davidson diagonalization with overlap
     ethr =  1.00E-06,  avg # of iterations =  5.1

     total cpu time spent up to now is       71.2 secs

     total energy              =     -89.44031911 Ry
     Harris-Foulkes estimate   =     -89.50451524 Ry
     estimated scf accuracy    <       0.00031944 Ry

     iteration #  2     ecut=    40.00 Ry     beta= 0.50
     Davidson diagonalization with overlap
     ethr =  9.98E-07,  avg # of iterations =  3.4

     total cpu time spent up to now is       73.9 secs

     total energy              =     -89.44070868 Ry
     Harris-Foulkes estimate   =     -89.44074695 Ry
     estimated scf accuracy    <       0.00011465 Ry

     iteration #  3     ecut=    40.00 Ry     beta= 0.50
     Davidson diagonalization with overlap
     ethr =  3.58E-07,  avg # of iterations =  1.2

     total cpu time spent up to now is       75.4 secs

     total energy              =     -89.44069596 Ry
     Harris-Foulkes estimate   =     -89.44071477 Ry
     estimated scf accuracy    <       0.00003259 Ry

     iteration #  4     ecut=    40.00 Ry     beta= 0.50
     Davidson diagonalization with overlap
     ethr =  1.02E-07,  avg # of iterations =  2.1

     total cpu time spent up to now is       77.5 secs

[...]
     Davidson diagonalization with overlap
     ethr =  1.00E-06,  avg # of iterations =  3.3

     Threshold (ethr) on eigenvalues was too large:
     Diagonalizing with lowered threshold

     Davidson diagonalization with overlap
     ethr =  7.43E-08,  avg # of iterations =  2.1

     total cpu time spent up to now is     2162.4 secs

     total energy              =     -89.97673681 Ry
     Harris-Foulkes estimate   =     -89.97613762 Ry
     estimated scf accuracy    <       0.00002451 Ry

     iteration #  2     ecut=    40.00 Ry     beta= 0.50
     Davidson diagonalization with overlap
     ethr =  7.66E-08,  avg # of iterations =  2.0

     total cpu time spent up to now is     2174.7 secs

     total energy              =     -89.97674378 Ry
     Harris-Foulkes estimate   =     -89.97674785 Ry
     estimated scf accuracy    <       0.00001029 Ry

     iteration #  3     ecut=    40.00 Ry     beta= 0.50
     Davidson diagonalization with overlap
     ethr =  3.22E-08,  avg # of iterations =  2.0

     total cpu time spent up to now is     2186.4 secs

     total energy              =     -89.97674482 Ry
     Harris-Foulkes estimate   =     -89.97674527 Ry
     estimated scf accuracy    <       0.00000128 Ry

     iteration #  4     ecut=    40.00 Ry     beta= 0.50
     Davidson diagonalization with overlap
     ethr =  4.00E-09,  avg # of iterations =  2.1

     total cpu time spent up to now is     2199.2 secs

     total energy              =     -89.97674507 Ry
     Harris-Foulkes estimate   =     -89.97674534 Ry
     estimated scf accuracy    <       0.00000088 Ry

     iteration #  5     ecut=    40.00 Ry     beta= 0.50
     Davidson diagonalization with overlap
     ethr =  2.76E-09,  avg # of iterations =  1.3

     total cpu time spent up to now is     2208.7 secs

     total energy              =     -89.97674518 Ry
     Harris-Foulkes estimate   =     -89.97674520 Ry
     estimated scf accuracy    <       0.00000006 Ry

     iteration #  6     ecut=    40.00 Ry     beta= 0.50
     Davidson diagonalization with overlap
     ethr =  1.94E-10,  avg # of iterations =  2.3

     total cpu time spent up to now is     2222.2 secs

     End of self-consistent calculation

          k = 0.0000 0.0000 0.0000 (  1551 PWs)   bands (ev):

   -12.1068  -8.2785  -4.9039  -3.7398  -3.7001  -1.0039  -0.5344   1.3424
     1.8591   2.4273   2.4353   3.0293   6.0962   6.4524   7.9411   7.9762
     8.8915  11.1024  12.1377  12.3328

          k = 0.0000 0.0002 0.3183 (  1534 PWs)   bands (ev):

   -11.4367  -9.6801  -3.7529  -3.4496  -3.3890  -1.8354  -0.6815   0.1478
     1.3619   2.0757   3.2731   3.5924   5.3131   5.9438   7.7219  10.4126
    10.5868  11.2828  12.5997  13.0934

          k =-0.1171 0.3439 0.0000 (  1534 PWs)   bands (ev):

   -11.3458  -9.4874  -4.5284  -4.0854  -3.0585  -1.3965  -1.3059  -0.4662
     2.2490   2.7669   3.6755   3.8087   5.9720   6.6459   7.2344   9.4612
    10.7032  11.1415  11.5467  12.4786

          k =-0.1171 0.3441 0.3183 (  1562 PWs)   bands (ev):

   -10.7989  -9.7585  -5.4729  -4.6427  -2.6812  -2.5846   0.1522   0.9506
     1.5541   1.9849   3.6065   4.2037   6.1556   6.8395   8.1086   9.3319
     9.7968  11.0048  12.6306  13.4527

          k =-0.1171 0.3438-0.3182 (  1562 PWs)   bands (ev):

   -10.7993  -9.7584  -5.4660  -4.6504  -2.6676  -2.5971   0.1580   0.9378
     1.5552   1.9844   3.6274   4.1845   6.1524   6.8503   8.0748   9.4124
     9.8036  10.9484  12.6046  13.4819

          k = 0.3439-0.1171 0.0002 (  1534 PWs)   bands (ev):

   -11.3458  -9.4874  -4.5284  -4.0853  -3.0585  -1.3968  -1.3057  -0.4660
     2.2488   2.7656   3.6771   3.8093   5.9719   6.6458   7.2343   9.4609
    10.7029  11.1414  11.5473  12.4772

          k = 0.3440-0.1169 0.3185 (  1562 PWs)   bands (ev):

   -10.7988  -9.7589  -5.4702  -4.6450  -2.6794  -2.5870   0.1517   0.9510
     1.5550   1.9843   3.6076   4.2034   6.1570   6.8376   8.1087   9.3325
     9.7973  11.0038  12.6305  13.4540

          k = 0.3439-0.1172-0.3181 (  1562 PWs)   bands (ev):

   -10.7995  -9.7581  -5.4687  -4.6479  -2.6692  -2.5948   0.1584   0.9370
     1.5539   1.9849   3.6273   4.1866   6.1507   6.8505   8.0749   9.4112
     9.8028  10.9487  12.6048  13.4822

          k = 0.2268 0.2269 0.0002 (  1562 PWs)   bands (ev):

   -11.8927  -8.2743  -5.3559  -4.6552  -4.0641  -0.5038   0.1613   1.2145
     2.7612   2.9421   3.2382   3.4409   4.4879   6.1402   6.4997   9.2680
    10.5574  11.3690  12.0196  12.5613

          k = 0.2269 0.2270 0.3185 (  1544 PWs)   bands (ev):

   -11.2387  -9.5494  -4.8523  -4.1802  -3.4592  -1.4515  -1.0345  -0.1114
     2.7087   2.8565   4.1248   4.2723   5.3539   6.3798   7.4995   9.9351
    10.7840  11.0251  11.9958  12.3205

          k = 0.2268 0.2267-0.3181 (  1544 PWs)   bands (ev):

   -11.2393  -9.5486  -4.8524  -4.1704  -3.4700  -1.4471  -1.0407  -0.1092
     2.7188   2.8349   4.1405   4.2815   5.3136   6.4048   7.4987   9.9867
    10.8153  10.9319  11.9848  12.3593

          k = 0.4610-0.4610 0.0002 (  1562 PWs)   bands (ev):

   -11.1396  -9.6120  -5.2052  -3.9798  -3.3542  -1.1091  -0.7896  -0.7473
     2.6654   3.4063   3.8394   4.1068   4.8532   6.7257   7.1489  10.3129
    10.4211  10.8932  11.2403  12.9106

          k = 0.4610-0.4609 0.3184 (  1544 PWs)   bands (ev):

   -10.6283  -9.7545  -5.4452  -5.1748  -3.1673  -2.7220   0.2148   1.1501
     1.8614   2.7288   4.1706   4.6265   6.4834   6.7083   7.0332   9.5044
    10.1506  10.3999  12.9180  12.9732

          k = 0.4610-0.4612-0.3181 (  1544 PWs)   bands (ev):

   -10.6281  -9.7548  -5.4426  -5.1765  -3.1666  -2.7243   0.2142   1.1516
     1.8630   2.7273   4.1693   4.6278   6.4851   6.7064   7.0342   9.5040
    10.1501  10.4000  12.9173  12.9726

     the Fermi energy is     9.8769 ev

!    total energy              =     -89.97674520 Ry
     Harris-Foulkes estimate   =     -89.97674520 Ry
     estimated scf accuracy    <          6.9E-09 Ry

     The total energy is the sum of the following terms:

     one-electron contribution =       2.28604727 Ry
     hartree contribution      =      17.23500003 Ry
     xc contribution           =     -27.45582539 Ry
     ewald contribution        =     -82.04281537 Ry
     smearing contrib. (-TS)   =       0.00084826 Ry

     convergence has been achieved in   6 iterations

     Forces acting on atoms (cartesian axes, Ry/au):

     atom    1 type  1   force =    -0.00510424    0.00874803   -0.00189675
     atom    2 type  1   force =     0.00698230   -0.00695264    0.00007649
     atom    3 type  1   force =    -0.00671197    0.00901741   -0.00252695
     atom    4 type  1   force =     0.00737711   -0.00856651    0.00050850
     atom    5 type  1   force =     0.00908545   -0.00690899    0.00008211
     atom    6 type  1   force =    -0.00918379    0.00734477    0.00134588
     atom    7 type  1   force =    -0.00933900    0.00501548    0.00236952
     atom    8 type  1   force =     0.00689414   -0.00769755    0.00004120

     Total force =     0.030972     Total SCF correction =     0.000120


     Computing stress (Cartesian axis) and pressure

          total   stress  (Ry/bohr**3)                   (kbar)     P=      -37.31
  -0.00028455  -0.00015336  -0.00000620          -41.86      -22.56       -0.91
  -0.00015336  -0.00028723  -0.00000622          -22.56      -42.25       -0.91
  -0.00000620  -0.00000622  -0.00018904           -0.91       -0.91      -27.81


     number of scf cycles    =  43
     number of bfgs steps    =  39

     enthalpy old            =     -89.9765367564 Ry
     enthalpy new            =     -89.9767177973 Ry

     CASE: enthalpy_new < enthalpy_old

     new trust radius        =       0.0105843059 bohr
     new conv_thr            =       0.0000000181 Ry

     new unit-cell volume =    402.74206 a.u.^3 (    59.68022 Ang^3 )
     density =      2.67110 g/cm^3

CELL_PARAMETERS (bohr)
   7.814278690   2.663985118  -0.004366031
   2.664128840   7.815609417  -0.005954345
  -0.007865282  -0.005086781   7.461487652

ATOMIC_POSITIONS (crystal)
C             0.6746092149        0.5083260252        0.3328985169
C             0.0066589503        0.1729439448        0.1655986825
C             0.1762428542        0.0086875855        0.8328381585
C             0.5069640922        0.6744500656        0.6658615936
C             0.8258945239       -0.0063732206        0.8348134683
C             0.4920682999        0.3242751458        0.6667286809
C            -0.0090409558        0.8249070999        0.1676412297
C             0.3266030205        0.4927833538        0.3336196696



     Writing output data file ./pp.save/
     NEW-OLD atomic charge density approx. for the potential
     extrapolated charge   31.97448, renormalised to   32.00000

     total cpu time spent up to now is     2222.7 secs

     Self-consistent Calculation

     iteration #  1     ecut=    40.00 Ry     beta= 0.50
     Davidson diagonalization with overlap
     ethr =  1.00E-06,  avg # of iterations =  4.1

     total cpu time spent up to now is     2243.0 secs

     total energy              =     -89.97699507 Ry
     Harris-Foulkes estimate   =     -89.97593571 Ry
     estimated scf accuracy    <       0.00005744 Ry

     iteration #  2     ecut=    40.00 Ry     beta= 0.50
     Davidson diagonalization with overlap
     ethr =  1.79E-07,  avg # of iterations =  2.1

     total cpu time spent up to now is     2256.1 secs

     total energy              =     -89.97701566 Ry
     Harris-Foulkes estimate   =     -89.97702551 Ry
     estimated scf accuracy    <       0.00002506 Ry

     iteration #  3     ecut=    40.00 Ry     beta= 0.50
     Davidson diagonalization with overlap
     ethr =  7.83E-08,  avg # of iterations =  2.0

     total cpu time spent up to now is     2267.7 secs

     total energy              =     -89.97701776 Ry
     Harris-Foulkes estimate   =     -89.97701885 Ry
     estimated scf accuracy    <       0.00000299 Ry

     iteration #  4     ecut=    40.00 Ry     beta= 0.50
     Davidson diagonalization with overlap
     ethr =  9.34E-09,  avg # of iterations =  2.1

     total cpu time spent up to now is     2280.5 secs

     total energy              =     -89.97701837 Ry
     Harris-Foulkes estimate   =     -89.97701899 Ry
     estimated scf accuracy    <       0.00000202 Ry

     iteration #  5     ecut=    40.00 Ry     beta= 0.50
     Davidson diagonalization with overlap
     ethr =  6.30E-09,  avg # of iterations =  1.6

     total cpu time spent up to now is     2290.7 secs

     total energy              =     -89.97701860 Ry
     Harris-Foulkes estimate   =     -89.97701868 Ry
     estimated scf accuracy    <       0.00000019 Ry

     iteration #  6     ecut=    40.00 Ry     beta= 0.50
     Davidson diagonalization with overlap
     ethr =  5.92E-10,  avg # of iterations =  2.3

     total cpu time spent up to now is     2304.4 secs

     total energy              =     -89.97701865 Ry
     Harris-Foulkes estimate   =     -89.97701865 Ry
     estimated scf accuracy    <       0.00000002 Ry

     iteration #  7     ecut=    40.00 Ry     beta= 0.50
     Davidson diagonalization with overlap
     ethr =  6.68E-11,  avg # of iterations =  2.1

     total cpu time spent up to now is     2317.0 secs

     End of self-consistent calculation

          k = 0.0000 0.0000 0.0000 (  1551 PWs)   bands (ev):

   -12.0960  -8.2442  -4.8983  -3.7434  -3.6890  -0.9816  -0.5107   1.3674
     1.8754   2.4185   2.4398   3.0458   6.1057   6.4932   7.9288   8.0029
     8.8876  11.0762  12.1149  12.3583

          k = 0.0001 0.0002 0.3185 (  1534 PWs)   bands (ev):

   -11.4235  -9.6583  -3.7380  -3.4502  -3.3798  -1.8114  -0.6603   0.1704
     1.3676   2.0806   3.2756   3.6072   5.3219   5.9676   7.7278  10.4119
    10.5800  11.2849  12.5872  13.1026

          k =-0.1173 0.3440 0.0001 (  1534 PWs)   bands (ev):

   -11.3323  -9.4643  -4.5222  -4.0808  -3.0431  -1.3724  -1.2893  -0.4494
     2.2573   2.7745   3.6773   3.8272   5.9901   6.6594   7.2419   9.4551
    10.7047  11.1387  11.5315  12.4913

          k =-0.1172 0.3442 0.3186 (  1562 PWs)   bands (ev):

   -10.7826  -9.7354  -5.4725  -4.6357  -2.6733  -2.5653   0.1742   0.9782
     1.5579   2.0012   3.6060   4.2169   6.1776   6.8473   8.1353   9.2971
     9.7976  11.0258  12.6367  13.4463

          k =-0.1174 0.3438-0.3184 (  1562 PWs)   bands (ev):

   -10.7830  -9.7356  -5.4629  -4.6465  -2.6499  -2.5863   0.1866   0.9532
     1.5590   2.0005   3.6423   4.1838   6.1705   6.8674   8.0767   9.4367
     9.8072  10.9288  12.5923  13.4960

          k = 0.3441-0.1173 0.0003 (  1534 PWs)   bands (ev):

   -11.3322  -9.4641  -4.5225  -4.0814  -3.0431  -1.3726  -1.2898  -0.4494
     2.2583   2.7736   3.6786   3.8275   5.9896   6.6603   7.2416   9.4559
    10.7043  11.1388  11.5325  12.4907

          k = 0.3442-0.1171 0.3187 (  1562 PWs)   bands (ev):

   -10.7820  -9.7362  -5.4701  -4.6373  -2.6709  -2.5698   0.1752   0.9770
     1.5588   1.9999   3.6078   4.2170   6.1789   6.8459   8.1364   9.2990
     9.7964  11.0269  12.6370  13.4467

          k = 0.3440-0.1175-0.3182 (  1562 PWs)   bands (ev):

   -10.7834  -9.7345  -5.4651  -4.6448  -2.6531  -2.5840   0.1850   0.9546
     1.5571   2.0013   3.6428   4.1871   6.1690   6.8670   8.0769   9.4368
     9.8082  10.9305  12.5923  13.4970

          k = 0.2268 0.2267 0.0004 (  1562 PWs)   bands (ev):

   -11.8819  -8.2400  -5.3521  -4.6498  -4.0565  -0.4800   0.1901   1.2375
     2.7494   2.9590   3.2407   3.4486   4.4967   6.1568   6.5432   9.2622
    10.5435  11.3608  11.9978  12.5737

          k = 0.2269 0.2269 0.3189 (  1544 PWs)   bands (ev):

   -11.2252  -9.5274  -4.8472  -4.1740  -3.4438  -1.4318  -1.0126  -0.0913
     2.7079   2.8735   4.1246   4.2816   5.3767   6.3971   7.5154   9.9117
    10.7621  11.0739  11.9904  12.2973

          k = 0.2267 0.2265-0.3181 (  1544 PWs)   bands (ev):

   -11.2262  -9.5260  -4.8472  -4.1569  -3.4626  -1.4242  -1.0234  -0.0875
     2.7256   2.8357   4.1523   4.2979   5.3060   6.4408   7.5141  10.0019
    10.7947  10.9320  11.9711  12.3665

          k = 0.4613-0.4613 0.0002 (  1562 PWs)   bands (ev):

   -11.1260  -9.5894  -5.1997  -3.9764  -3.3358  -1.0839  -0.7801  -0.7227
     2.6689   3.4109   3.8602   4.1130   4.8645   6.7307   7.1736  10.2963
    10.4116  10.8981  11.2451  12.9050

          k = 0.4615-0.4611 0.3186 (  1544 PWs)   bands (ev):

   -10.6118  -9.7311  -5.4437  -5.1698  -3.1557  -2.7072   0.2414   1.1791
     1.8609   2.7387   4.1812   4.6360   6.5071   6.7242   7.0383   9.4996
    10.1536  10.3956  12.9223  12.9721

          k = 0.4612-0.4615-0.3183 (  1544 PWs)   bands (ev):

   -10.6112  -9.7320  -5.4417  -5.1707  -3.1539  -2.7103   0.2422   1.1777
     1.8633   2.7370   4.1794   4.6377   6.5088   6.7227   7.0397   9.4999
    10.1511  10.3958  12.9209  12.9736

     the Fermi energy is     9.8774 ev

!    total energy              =     -89.97701865 Ry
     Harris-Foulkes estimate   =     -89.97701866 Ry
     estimated scf accuracy    <          9.6E-09 Ry

     The total energy is the sum of the following terms:

     one-electron contribution =       2.37008353 Ry
     hartree contribution      =      17.20771603 Ry
     xc contribution           =     -27.45600134 Ry
     ewald contribution        =     -82.09957667 Ry
     smearing contrib. (-TS)   =       0.00075980 Ry

     convergence has been achieved in   7 iterations

     Forces acting on atoms (cartesian axes, Ry/au):

     atom    1 type  1   force =    -0.00351656    0.00961994   -0.00054054
     atom    2 type  1   force =     0.00643888   -0.00667729   -0.00262451
     atom    3 type  1   force =    -0.00638847    0.01027793   -0.00180752
     atom    4 type  1   force =     0.00737597   -0.00964491   -0.00164712
     atom    5 type  1   force =     0.01036468   -0.00663533    0.00249042
     atom    6 type  1   force =    -0.01042935    0.00730000    0.00006175
     atom    7 type  1   force =    -0.01038948    0.00332789    0.00132181
     atom    8 type  1   force =     0.00654434   -0.00756824    0.00274571

     Total force =     0.032344     Total SCF correction =     0.000207


     Computing stress (Cartesian axis) and pressure

          total   stress  (Ry/bohr**3)                   (kbar)     P=      -35.99
  -0.00026439  -0.00016887  -0.00001010          -38.89      -24.84       -1.49
  -0.00016887  -0.00026899  -0.00001099          -24.84      -39.57       -1.62
  -0.00001010  -0.00001099  -0.00020049           -1.49       -1.62      -29.49


     number of scf cycles    =  44
     number of bfgs steps    =  40

     enthalpy old            =     -89.9767177973 Ry
     enthalpy new            =     -89.9769912721 Ry

     CASE: enthalpy_new < enthalpy_old


     WARNING: bfgs curvature condition failed, Theta= 0.889
     new trust radius        =       0.0158780317 bohr
     new conv_thr            =       0.0000000273 Ry

     new unit-cell volume =    402.25347 a.u.^3 (    59.60781 Ang^3 )
     density =      2.67434 g/cm^3

CELL_PARAMETERS (bohr)
   7.814015806   2.669436739  -0.008027212
   2.670022493   7.817442265  -0.008944713
  -0.012230548  -0.009099402   7.454931249

ATOMIC_POSITIONS (crystal)
C             0.6743123667        0.5092237127        0.3317436162
C             0.0066942458        0.1714621958        0.1658232577
C             0.1770002215        0.0096178129        0.8318979903
C             0.5067799645        0.6739709895        0.6659104084
C             0.8265272396       -0.0058271404        0.8350970984
C             0.4914270089        0.3239318030        0.6674545212
C            -0.0105231104        0.8250770012        0.1691152529
C             0.3277820635        0.4925436253        0.3329578549



     Writing output data file ./pp.save/
     NEW-OLD atomic charge density approx. for the potential
     extrapolated charge   31.96113, renormalised to   32.00000

     total cpu time spent up to now is     2317.5 secs

     Self-consistent Calculation

     iteration #  1     ecut=    40.00 Ry     beta= 0.50
     Davidson diagonalization with overlap
     ethr =  1.00E-06,  avg # of iterations =  4.4

     total cpu time spent up to now is     2341.5 secs

     total energy              =     -89.97737503 Ry
     Harris-Foulkes estimate   =     -89.97568789 Ry
     estimated scf accuracy    <       0.00013103 Ry

     iteration #  2     ecut=    40.00 Ry     beta= 0.50
     Davidson diagonalization with overlap
     ethr =  4.09E-07,  avg # of iterations =  2.1

     total cpu time spent up to now is     2354.6 secs

     total energy              =     -89.97742069 Ry
     Harris-Foulkes estimate   =     -89.97744365 Ry
     estimated scf accuracy    <       0.00005855 Ry

     iteration #  3     ecut=    40.00 Ry     beta= 0.50
     Davidson diagonalization with overlap
     ethr =  1.83E-07,  avg # of iterations =  1.9

     total cpu time spent up to now is     2366.4 secs

     total energy              =     -89.97742547 Ry
     Harris-Foulkes estimate   =     -89.97742812 Ry
     estimated scf accuracy    <       0.00000714 Ry

     iteration #  4     ecut=    40.00 Ry     beta= 0.50
     Davidson diagonalization with overlap
     ethr =  2.23E-08,  avg # of iterations =  2.1

     total cpu time spent up to now is     2379.5 secs

     total energy              =     -89.97742699 Ry
     Harris-Foulkes estimate   =     -89.97742833 Ry
     estimated scf accuracy    <       0.00000446 Ry

     iteration #  5     ecut=    40.00 Ry     beta= 0.50
     Davidson diagonalization with overlap
     ethr =  1.39E-08,  avg # of iterations =  1.6

     total cpu time spent up to now is     2390.2 secs

     total energy              =     -89.97742749 Ry
     Harris-Foulkes estimate   =     -89.97742769 Ry
     estimated scf accuracy    <       0.00000046 Ry

     iteration #  6     ecut=    40.00 Ry     beta= 0.50
     Davidson diagonalization with overlap
