
     Program PWSCF v.6.5 starts on 10Jul2022 at  8:58:22 

     This program is part of the open-source Quantum ESPRESSO suite
     for quantum simulation of materials; please cite
         "P. Giannozzi et al., J. Phys.:Condens. Matter 21 395502 (2009);
         "P. Giannozzi et al., J. Phys.:Condens. Matter 29 465901 (2017);
          URL http://www.quantum-espresso.org", 
     in publications or presentations arising from this work. More details at
     http://www.quantum-espresso.org/quote

     Parallel version (MPI), running on    96 processors

     MPI processes distributed on     2 nodes
     R & G space division:  proc/nbgrp/npool/nimage =      96
     Waiting for input...
     Reading input from standard input
     Message from routine read_cards :
     DEPRECATED: no units specified in CELL_PARAMETERS card

     Current dimensions of program PWSCF are:
     Max number of different atomic species (ntypx) = 10
     Max number of k-points (npk) =  40000
     Max angular momentum in pseudopotentials (lmaxx) =  3

     Subspace diagonalization in iterative solution of the eigenvalue problem:
     one sub-group per band group will be used
     scalapack distributed-memory algorithm (size of sub-group:  9*  9 procs)

 
     Parallelization info
     --------------------
     sticks:   dense  smooth     PW     G-vecs:    dense   smooth      PW
     Min          15      15      4                  190      190      32
     Max          16      16      5                  192      192      35
     Sum        1477    1477    465                18301    18301    3275
 


     bravais-lattice index     =            0
     lattice parameter (alat)  =      14.9791  a.u.
     unit-cell volume          =     534.0177 (a.u.)^3
     number of atoms/cell      =            8
     number of atomic types    =            1
     number of electrons       =        32.00
     number of Kohn-Sham states=           20
     kinetic-energy cutoff     =      40.0000  Ry
     charge density cutoff     =     160.0000  Ry
     convergence threshold     =      1.0E-06
     mixing beta               =       0.5000
     number of iterations used =            8  plain     mixing
     Exchange-correlation=  SLA  PW   PBE  PBE
                           (   1   4   3   4   0   0   0)
     nstep                     =          250


     celldm(1)=  14.979096  celldm(2)=   0.000000  celldm(3)=   0.000000
     celldm(4)=   0.000000  celldm(5)=   0.000000  celldm(6)=   0.000000

     crystal axes: (cart. coord. in units of alat)
               a(1) = (   0.997230   0.029735  -0.068182 )  
               a(2) = (   0.025102   0.517701  -0.001996 )  
               a(3) = (  -0.019681   0.002443   0.309558 )  

     reciprocal axes: (cart. coord. in units 2 pi/alat)
               b(1) = (  1.008639 -0.048657  0.064510 )  
               b(2) = ( -0.058979  1.934402 -0.019018 )  
               b(3) = (  0.221777  0.001757  3.244498 )  


     PseudoPot. # 1 for C  read from file:
     ./C.pbe-van_bm.upf
     MD5 check sum: 1a69bf6b8db32088f5b2163dbdb77a27
     Pseudo is Ultrasoft, Zval =  4.0
     Generated by new atomic code, or converted to UPF format
     Using radial grid of  721 points,  4 beta functions with: 
                l(1) =   0
                l(2) =   0
                l(3) =   1
                l(4) =   1
     Q(r) pseudized with  8 coefficients,  rinner =    0.800   0.800   0.800


     atomic species   valence    mass     pseudopotential
        C              4.00    12.00000     C ( 1.00)

     No symmetry found



   Cartesian axes

     site n.     atom                  positions (alat units)
         1           C   tau(   1) = (   0.2524609   0.1210116   0.1429236  )
         2           C   tau(   2) = (   0.6401028   0.2230604   0.0114470  )
         3           C   tau(   3) = (   0.2466233   0.2059163   0.2973523  )
         4           C   tau(   4) = (   0.6459263   0.1381780  -0.1429924  )
         5           C   tau(   5) = (   0.2552291   0.3810823   0.2967148  )
         6           C   tau(   6) = (   0.6426990   0.4831549   0.1652031  )
         7           C   tau(   7) = (   0.2690129   0.4635433   0.1415830  )
         8           C   tau(   8) = (   0.6486169   0.3982635   0.0107689  )

     number of k points=    14  Marzari-Vanderbilt smearing, width (Ry)=  0.0200
                       cart. coord. in units 2pi/alat
        k(    1) = (   0.0000000   0.0000000   0.0000000), wk =   0.0833333
        k(    2) = (   0.0554444   0.0004392   0.8111245), wk =   0.1666667
        k(    3) = (  -0.1108887  -0.0008783  -1.6222489), wk =   0.0833333
        k(    4) = (  -0.0196597   0.6448005  -0.0063394), wk =   0.1666667
        k(    5) = (   0.0357847   0.6452397   0.8047850), wk =   0.1666667
        k(    6) = (  -0.1305484   0.6439222  -1.6285884), wk =   0.1666667
        k(    7) = (  -0.0751041   0.6443614  -0.8174639), wk =   0.1666667
        k(    8) = (  -0.5043197   0.0243284  -0.0322551), wk =   0.0833333
        k(    9) = (  -0.4488754   0.0247676   0.7788693), wk =   0.1666667
        k(   10) = (  -0.6152085   0.0234501  -1.6545041), wk =   0.0833333
        k(   11) = (  -0.5239794   0.6691290  -0.0385946), wk =   0.1666667
        k(   12) = (  -0.4685350   0.6695681   0.7725299), wk =   0.1666667
        k(   13) = (  -0.6348682   0.6682507  -1.6608435), wk =   0.1666667
        k(   14) = (  -0.5794238   0.6686898  -0.8497191), wk =   0.1666667

     Dense  grid:    18301 G-vectors     FFT dimensions: (  64,  32,  20)

     Estimated max dynamical RAM per process >       2.62 MB

     Estimated total dynamical RAM >     251.51 MB

     Initial potential from superposition of free atoms

     starting charge   31.99968, renormalised to   32.00000
     Starting wfcs are   32 randomized atomic wfcs

     total cpu time spent up to now is        0.7 secs

     Self-consistent Calculation

     iteration #  1     ecut=    40.00 Ry     beta= 0.50
     Davidson diagonalization with overlap
     ethr =  1.00E-02,  avg # of iterations =  2.1

     total cpu time spent up to now is        1.5 secs

     total energy              =     -91.05348644 Ry
     Harris-Foulkes estimate   =     -91.50001594 Ry
     estimated scf accuracy    <       0.90395724 Ry

     iteration #  2     ecut=    40.00 Ry     beta= 0.50
     Davidson diagonalization with overlap
     ethr =  2.82E-03,  avg # of iterations =  2.3

     total cpu time spent up to now is        2.1 secs

     total energy              =     -91.08258377 Ry
     Harris-Foulkes estimate   =     -91.12332753 Ry
     estimated scf accuracy    <       0.08509775 Ry

     iteration #  3     ecut=    40.00 Ry     beta= 0.50
     Davidson diagonalization with overlap
     ethr =  2.66E-04,  avg # of iterations =  3.9

     total cpu time spent up to now is        3.1 secs

     total energy              =     -91.09599979 Ry
     Harris-Foulkes estimate   =     -91.09624858 Ry
     estimated scf accuracy    <       0.00230654 Ry

     iteration #  4     ecut=    40.00 Ry     beta= 0.50
     Davidson diagonalization with overlap
     ethr =  7.21E-06,  avg # of iterations =  3.3

     total cpu time spent up to now is        3.9 secs

     total energy              =     -91.09633424 Ry
     Harris-Foulkes estimate   =     -91.09636514 Ry
     estimated scf accuracy    <       0.00053425 Ry

     iteration #  5     ecut=    40.00 Ry     beta= 0.50
     Davidson diagonalization with overlap
     ethr =  1.67E-06,  avg # of iterations =  3.5

     total cpu time spent up to now is        4.8 secs

     total energy              =     -91.09639254 Ry
     Harris-Foulkes estimate   =     -91.09639828 Ry
     estimated scf accuracy    <       0.00002161 Ry

     iteration #  6     ecut=    40.00 Ry     beta= 0.50
     Davidson diagonalization with overlap
     ethr =  6.75E-08,  avg # of iterations =  2.8

     total cpu time spent up to now is        5.5 secs

     total energy              =     -91.09639945 Ry
     Harris-Foulkes estimate   =     -91.09639972 Ry
     estimated scf accuracy    <       0.00000119 Ry

     iteration #  7     ecut=    40.00 Ry     beta= 0.50
     Davidson diagonalization with overlap
     ethr =  3.72E-09,  avg # of iterations =  2.0

     total cpu time spent up to now is        6.2 secs

     End of self-consistent calculation

          k = 0.0000 0.0000 0.0000 (  2281 PWs)   bands (ev):

   -14.3877 -14.0111  -8.4569  -8.1920  -7.8226  -7.6195  -3.0728  -1.3161
    -1.2459  -1.2323   2.4451   2.4974   2.9074   3.2066   3.2469   4.1654
     7.0538   8.5247   8.9378  12.6465

          k = 0.0554 0.0004 0.8111 (  2286 PWs)   bands (ev):

   -13.2781 -12.9236  -7.5296  -7.2883  -7.0226  -6.8166  -4.5934  -4.4307
    -1.7151  -0.6082  -0.4974   0.0371   0.7122   0.7908   4.2834   5.4712
     6.2442   7.4702  10.4527  14.0667

          k =-0.1109-0.0009-1.6222 (  2290 PWs)   bands (ev):

   -10.0698 -10.0695  -9.7758  -9.7755  -4.7930  -4.7928  -4.6077  -4.6075
    -3.4346  -3.4343  -3.2993  -3.2989   2.0650   2.0656   3.5731   3.5734
     8.2850   8.2854   9.3681   9.3687

          k =-0.0197 0.6448-0.0063 (  2294 PWs)   bands (ev):

   -13.6745 -13.3116 -11.5673 -11.2433  -3.7364  -3.5525  -2.2105  -0.6168
    -0.5361  -0.4255   0.2649   0.8432   0.9439   1.1728   1.2414   1.8986
     9.8818  10.6514  11.8283  12.6274

          k = 0.0358 0.6452 0.8048 (  2275 PWs)   bands (ev):

   -12.5753 -12.2331 -10.5015 -10.1979  -4.5837  -4.3962  -2.5917  -2.5505
    -2.4530  -2.3927  -0.8892   0.6242   0.6856   0.8331   1.5123   3.0437
     9.0499  10.1973  11.3197  12.2007

          k =-0.1305 0.6439-1.6286 (  2279 PWs)   bands (ev):

    -9.4405  -9.4307  -9.1529  -9.1445  -7.1978  -7.1898  -6.9642  -6.9580
    -1.0432  -1.0225  -0.9543  -0.9343   2.4257   2.4465   3.8479   3.8484
     7.0534   7.0675   8.5075   8.5385

          k =-0.0751 0.6444-0.8175 (  2274 PWs)   bands (ev):

   -12.5712 -12.2302 -10.5098 -10.2042  -4.5834  -4.3954  -2.5848  -2.5383
    -2.4467  -2.3818  -0.8739   0.6079   0.6694   0.8190   1.4875   3.0625
     9.0473  10.2053  11.4254  12.2281

          k =-0.5043 0.0243-0.0323 (  2268 PWs)   bands (ev):

   -14.3841 -14.0154  -8.4552  -8.1943  -7.8212  -7.6209  -3.0042  -1.3594
    -1.3162  -1.2318   2.4451   2.4978   2.9379   3.2070   3.2478   4.1178
     7.1168   8.4439   9.7250  12.6419

          k =-0.4489 0.0248 0.7789 (  2280 PWs)   bands (ev):

   -13.2756 -12.9266  -7.5285  -7.2899  -7.0217  -6.8174  -4.5936  -4.4304
    -1.6648  -0.6081  -0.4973  -0.0453   0.7121   0.7905   4.3059   5.4350
     6.2590   7.4582  11.0530  13.8873

          k =-0.6152 0.0235-1.6545 (  2288 PWs)   bands (ev):

   -10.0693 -10.0690  -9.7764  -9.7762  -4.7927  -4.7926  -4.6079  -4.6077
    -3.4344  -3.4341  -3.2993  -3.2989   2.0764   2.0771   3.5550   3.5553
     8.2911   8.2915   9.3595   9.3601

          k =-0.5240 0.6691-0.0386 (  2300 PWs)   bands (ev):

   -13.6714 -13.3154 -11.5651 -11.2459  -3.7361  -3.5530  -2.1481  -0.6170
    -0.5361  -0.5285   0.3104   0.8430   0.9438   1.1728   1.2417   1.8262
    10.6194  10.6748  11.7620  13.0232

          k =-0.4685 0.6696 0.7725 (  2283 PWs)   bands (ev):

   -12.5725 -12.2364 -10.5008 -10.1987  -4.5840  -4.3957  -2.5910  -2.5505
    -2.4537  -2.3933  -0.8324   0.6243   0.6828   0.7433   1.5272   3.0203
     9.0433  10.2061  11.9638  12.2273

          k =-0.6349 0.6683-1.6608 (  2275 PWs)   bands (ev):

    -9.4394  -9.4308  -9.1541  -9.1444  -7.1966  -7.1903  -6.9656  -6.9574
    -1.0430  -1.0225  -0.9544  -0.9339   2.4453   2.4462   3.8232   3.8443
     7.0723   7.0766   8.4832   8.5181

          k =-0.5794 0.6687-0.8497 (  2272 PWs)   bands (ev):

   -12.5695 -12.2322 -10.5074 -10.2070  -4.5834  -4.3952  -2.5849  -2.5389
    -2.4465  -2.3810  -0.8398   0.6076   0.6682   0.7653   1.5371   2.9853
     9.0482  10.2020  11.8293  12.1969

     the Fermi energy is     5.7050 ev

!    total energy              =     -91.09639970 Ry
     Harris-Foulkes estimate   =     -91.09639971 Ry
     estimated scf accuracy    <       0.00000008 Ry

     The total energy is the sum of the following terms:

     one-electron contribution =     -90.82710054 Ry
     hartree contribution      =      59.74431722 Ry
     xc contribution           =     -28.37416100 Ry
     ewald contribution        =     -31.63999799 Ry
     smearing contrib. (-TS)   =       0.00054261 Ry

     convergence has been achieved in   7 iterations

     Forces acting on atoms (cartesian axes, Ry/au):

     atom    1 type  1   force =    -0.01330089   -0.00392138   -0.00075629
     atom    2 type  1   force =     0.01326032    0.00463372    0.00054789
     atom    3 type  1   force =    -0.01266870   -0.00018373   -0.00087995
     atom    4 type  1   force =     0.01263829   -0.00010653    0.00102637
     atom    5 type  1   force =    -0.01352264   -0.00393211   -0.00078607
     atom    6 type  1   force =     0.01362544    0.00412345    0.00065337
     atom    7 type  1   force =    -0.01262373   -0.00013927   -0.00093459
     atom    8 type  1   force =     0.01259191   -0.00047414    0.00112927

     Total force =     0.037880     Total SCF correction =     0.000673


     Computing stress (Cartesian axis) and pressure

          total   stress  (Ry/bohr**3)                   (kbar)     P=      181.90
   0.00049619   0.00022164  -0.00000386           72.99       32.60       -0.57
   0.00022164   0.00270645  -0.00002793           32.60      398.13       -4.11
  -0.00000386  -0.00002793   0.00050691           -0.57       -4.11       74.57


     BFGS Geometry Optimization

     number of scf cycles    =   1
     number of bfgs steps    =   0

     enthalpy new            =     -91.0963633966 Ry

     new trust radius        =       0.3137702651 bohr
     new conv_thr            =       0.0000010000 Ry

     new unit-cell volume =    584.51776 a.u.^3 (    86.61659 Ang^3 )
     density =      1.84043 g/cm^3

CELL_PARAMETERS (bohr)
  15.125437823   0.559017393  -1.035993227
   0.423634966   8.281484303  -0.035729190
  -0.298701033   0.034205552   4.695657140

ATOMIC_POSITIONS (crystal)
C             0.2570878457        0.2160239236        0.5195567956
C             0.6363982112        0.3940634915        0.1798075465
C             0.2570607414        0.3781512729        1.0194378088
C             0.6364147841        0.2318501775       -0.3200345785
C             0.2571318209        0.7160164492        1.0195930621
C             0.6363069083        0.8940460234        0.6797297407
C             0.2570623900        0.8781529065        0.5194516455
C             0.6363912984        0.7318297554        0.1799189792



     Writing output data file ./pp.save/
     NEW-OLD atomic charge density approx. for the potential
     extrapolated charge   34.76465, renormalised to   32.00000

     total cpu time spent up to now is        6.4 secs

     Self-consistent Calculation

     iteration #  1     ecut=    40.00 Ry     beta= 0.50
     Davidson diagonalization with overlap
     ethr =  1.00E-06,  avg # of iterations =  7.5

     total cpu time spent up to now is        8.6 secs

     total energy              =     -87.82877103 Ry
     Harris-Foulkes estimate   =     -84.89719216 Ry
     estimated scf accuracy    <       3.20475916 Ry

     iteration #  2     ecut=    40.00 Ry     beta= 0.50
     Davidson diagonalization with overlap
     ethr =  1.00E-02,  avg # of iterations =  4.4

     total cpu time spent up to now is        9.7 secs

     total energy              =     -91.10973996 Ry
     Harris-Foulkes estimate   =     -92.64956816 Ry
     estimated scf accuracy    <       4.05870267 Ry

     iteration #  3     ecut=    40.00 Ry     beta= 0.50
     Davidson diagonalization with overlap
     ethr =  1.00E-02,  avg # of iterations =  2.1

     total cpu time spent up to now is       10.4 secs

     total energy              =     -91.20504793 Ry
     Harris-Foulkes estimate   =     -91.42229675 Ry
     estimated scf accuracy    <       0.77813406 Ry

     iteration #  4     ecut=    40.00 Ry     beta= 0.50
     Davidson diagonalization with overlap
     ethr =  2.43E-03,  avg # of iterations =  2.1

     total cpu time spent up to now is       11.0 secs

     total energy              =     -91.15109949 Ry
     Harris-Foulkes estimate   =     -91.23014586 Ry
     estimated scf accuracy    <       0.31614035 Ry

     iteration #  5     ecut=    40.00 Ry     beta= 0.50
     Davidson diagonalization with overlap
     ethr =  9.88E-04,  avg # of iterations =  1.6

     total cpu time spent up to now is       11.6 secs

     total energy              =     -91.12871618 Ry
     Harris-Foulkes estimate   =     -91.16025336 Ry
     estimated scf accuracy    <       0.13534361 Ry

     iteration #  6     ecut=    40.00 Ry     beta= 0.50
     Davidson diagonalization with overlap
     ethr =  4.23E-04,  avg # of iterations =  1.6

     total cpu time spent up to now is       12.2 secs

     total energy              =     -91.11279085 Ry
     Harris-Foulkes estimate   =     -91.13270965 Ry
     estimated scf accuracy    <       0.05828398 Ry

     iteration #  7     ecut=    40.00 Ry     beta= 0.50
     Davidson diagonalization with overlap
     ethr =  1.82E-04,  avg # of iterations =  3.5

     total cpu time spent up to now is       13.1 secs

     total energy              =     -91.11431496 Ry
     Harris-Foulkes estimate   =     -91.11735377 Ry
     estimated scf accuracy    <       0.00785320 Ry

     iteration #  8     ecut=    40.00 Ry     beta= 0.50
     Davidson diagonalization with overlap
     ethr =  2.45E-05,  avg # of iterations =  3.4

     total cpu time spent up to now is       14.0 secs

     total energy              =     -91.11533510 Ry
     Harris-Foulkes estimate   =     -91.11540900 Ry
     estimated scf accuracy    <       0.00024273 Ry

     iteration #  9     ecut=    40.00 Ry     beta= 0.50
     Davidson diagonalization with overlap
     ethr =  7.59E-07,  avg # of iterations =  3.8

     total cpu time spent up to now is       15.0 secs

     total energy              =     -91.11536456 Ry
     Harris-Foulkes estimate   =     -91.11538337 Ry
     estimated scf accuracy    <       0.00003937 Ry

     iteration # 10     ecut=    40.00 Ry     beta= 0.50
     Davidson diagonalization with overlap
     ethr =  1.23E-07,  avg # of iterations =  2.0

     total cpu time spent up to now is       15.7 secs

     total energy              =     -91.11536607 Ry
     Harris-Foulkes estimate   =     -91.11536864 Ry
     estimated scf accuracy    <       0.00000465 Ry

     iteration # 11     ecut=    40.00 Ry     beta= 0.50
     Davidson diagonalization with overlap
     ethr =  1.45E-08,  avg # of iterations =  2.4

     total cpu time spent up to now is       16.5 secs

     End of self-consistent calculation

          k = 0.0000 0.0000 0.0000 (  2281 PWs)   bands (ev):

   -14.3503 -13.9984  -9.5419  -9.2965  -7.8881  -7.6777  -3.1662  -1.4123
    -1.3283  -1.2490   1.6159   1.6661   1.7856   2.1045   2.1464   2.9784
     6.1326   7.5732   8.4008  12.3140

          k = 0.0548 0.0007 0.8010 (  2286 PWs)   bands (ev):

   -13.2574 -12.9257  -8.5952  -8.3698  -7.1321  -6.9208  -4.6217  -4.4676
    -1.8569  -1.5345  -1.4285  -0.1821   0.0972   0.1747   3.1084   4.2437
     5.5258   6.7212   9.8867  12.2884

          k =-0.1097-0.0013-1.6020 (  2290 PWs)   bands (ev):

   -10.0962 -10.0959  -9.8194  -9.8191  -5.8057  -5.8056  -5.6321  -5.6319
    -3.6458  -3.6454  -3.5110  -3.5106   1.7579   1.7582   3.1836   3.1842
     6.9250   6.9255   7.9312   7.9317

          k =-0.0227 0.6041-0.0058 (  2294 PWs)   bands (ev):

   -13.7219 -13.3814 -11.8775 -11.5698  -4.6240  -4.4374  -2.4265  -0.7601
    -0.7163  -0.6840  -0.3268  -0.3240  -0.2146   0.6577   0.7219   1.2262
     9.1030   9.2255  10.2850  11.6671

          k = 0.0321 0.6047 0.7951 (  2275 PWs)   bands (ev):

   -12.6384 -12.3169 -10.8354 -10.5473  -4.9067  -4.7223  -3.2767  -3.1438
    -3.0154  -2.8646  -1.1461  -0.3960  -0.3279   0.5011   0.8979   2.3539
     7.9205   8.9900  10.6182  10.7909

          k =-0.1324 0.6028-1.6078 (  2279 PWs)   bands (ev):

    -9.5638  -9.5607  -9.2933  -9.2889  -7.5720  -7.5691  -7.3520  -7.3509
    -1.8520  -1.8504  -1.7630  -1.7607   2.0417   2.0461   3.3765   3.3943
     6.0507   6.0637   7.3542   7.3770

          k =-0.0776 0.6034-0.8068 (  2274 PWs)   bands (ev):

   -12.6387 -12.3185 -10.8344 -10.5443  -4.9125  -4.7280  -3.2721  -3.1397
    -3.0137  -2.8640  -1.1360  -0.3970  -0.3285   0.4796   0.8832   2.3854
     7.9147   8.9878  10.6875  10.8411

          k =-0.4983 0.0254-0.0319 (  2268 PWs)   bands (ev):

   -14.3467 -14.0027  -9.5401  -9.2987  -7.8863  -7.6795  -3.0960  -1.5283
    -1.3285  -1.2486   1.6158   1.6664   1.8165   2.1048   2.1468   2.9301
     6.2034   7.4840   9.1682  11.8061

          k =-0.4434 0.0260 0.7691 (  2280 PWs)   bands (ev):

   -13.2549 -12.9287  -8.5940  -8.3713  -7.1311  -6.9218  -4.6219  -4.4673
    -1.8056  -1.5345  -1.4283  -0.2655   0.0973   0.1744   3.1310   4.2073
     5.5453   6.7039  10.4630  12.2839

          k =-0.6080 0.0241-1.6338 (  2288 PWs)   bands (ev):

   -10.0957 -10.0954  -9.8200  -9.8197  -5.8055  -5.8054  -5.6323  -5.6321
    -3.6456  -3.6452  -3.5112  -3.5107   1.7694   1.7697   3.1658   3.1664
     6.9309   6.9314   7.9231   7.9235

          k =-0.5210 0.6294-0.0377 (  2300 PWs)   bands (ev):

   -13.7188 -13.3852 -11.8753 -11.5724  -4.6236  -4.4378  -2.3629  -0.8203
    -0.7603  -0.6840  -0.3250  -0.2808  -0.2146   0.6576   0.7221   1.1549
     9.1335   9.9337  10.2111  12.1690

          k =-0.4662 0.6301 0.7633 (  2283 PWs)   bands (ev):

   -12.6355 -12.3202 -10.8347 -10.5480  -4.9069  -4.7219  -3.2762  -3.1444
    -3.0153  -2.8651  -1.0876  -0.3961  -0.3278   0.4068   0.9116   2.3324
     7.9169   8.9947  10.7702  11.2716

          k =-0.6307 0.6281-1.6397 (  2275 PWs)   bands (ev):

    -9.5639  -9.5595  -9.2932  -9.2902  -7.5707  -7.5696  -7.3534  -7.3503
    -1.8522  -1.8500  -1.7626  -1.7611   2.0449   2.0624   3.3690   3.3728
     6.0682   6.0715   7.3292   7.3647

          k =-0.5758 0.6288-0.8387 (  2272 PWs)   bands (ev):

   -12.6370 -12.3204 -10.8319 -10.5472  -4.9125  -4.7279  -3.2721  -3.1395
    -3.0145  -2.8631  -1.1021  -0.3969  -0.3287   0.4255   0.9342   2.3070
     7.9143   8.9873  10.7668  11.1064

     the Fermi energy is     4.4777 ev

!    total energy              =     -91.11536721 Ry
     Harris-Foulkes estimate   =     -91.11536730 Ry
     estimated scf accuracy    <       0.00000019 Ry

     The total energy is the sum of the following terms:

     one-electron contribution =     -84.95320596 Ry
     hartree contribution      =      55.80198379 Ry
     xc contribution           =     -27.71264477 Ry
     ewald contribution        =     -34.25204964 Ry
     smearing contrib. (-TS)   =       0.00054937 Ry

     convergence has been achieved in  11 iterations

     Forces acting on atoms (cartesian axes, Ry/au):

     atom    1 type  1   force =    -0.01369135   -0.02799945   -0.00131477
     atom    2 type  1   force =     0.01354970    0.02719088    0.00149569
     atom    3 type  1   force =    -0.01085471    0.02478455   -0.00026227
     atom    4 type  1   force =     0.01086698   -0.02424122    0.00003850
     atom    5 type  1   force =    -0.01389392   -0.02797973   -0.00137056
     atom    6 type  1   force =     0.01395588    0.02750050    0.00159165
     atom    7 type  1   force =    -0.01084156    0.02475874   -0.00026909
     atom    8 type  1   force =     0.01090897   -0.02401427    0.00009085

     Total force =     0.081816     Total SCF correction =     0.000119


     Computing stress (Cartesian axis) and pressure

          total   stress  (Ry/bohr**3)                   (kbar)     P=      -93.38
   0.00043029  -0.00001346   0.00007838           63.30       -1.98       11.53
  -0.00001346  -0.00154310   0.00001281           -1.98     -227.00        1.88
   0.00007838   0.00001281  -0.00079155           11.53        1.88     -116.44


     number of scf cycles    =   2
     number of bfgs steps    =   1

     enthalpy old            =     -91.0963633966 Ry
     enthalpy new            =     -91.1153274746 Ry

     CASE: enthalpy_new < enthalpy_old

     new trust radius        =       0.0894639061 bohr
     new conv_thr            =       0.0000002800 Ry

     new unit-cell volume =    571.29931 a.u.^3 (    84.65782 Ang^3 )
     density =      1.88301 g/cm^3

CELL_PARAMETERS (bohr)
  15.252978087   0.555869522  -1.002535381
   0.428554926   8.128517081  -0.033782524
  -0.294903643   0.034044504   4.636066246

ATOMIC_POSITIONS (crystal)
C             0.2564579361        0.2135114666        0.5192043328
C             0.6370234773        0.3965118670        0.1801803554
C             0.2564557407        0.3803926303        1.0192630284
C             0.6370185621        0.2296542900       -0.3198887648
C             0.2564914498        0.7135061927        1.0192298481
C             0.6369521054        0.8965152439        0.6801226144
C             0.2564582339        0.8803924259        0.5192750485
C             0.6369964947        0.7296498836        0.1800745371



     Writing output data file ./pp.save/
     NEW-OLD atomic charge density approx. for the potential
     extrapolated charge   31.25961, renormalised to   32.00000

     total cpu time spent up to now is       16.6 secs

     Self-consistent Calculation

     iteration #  1     ecut=    40.00 Ry     beta= 0.50
     Davidson diagonalization with overlap
     ethr =  1.00E-06,  avg # of iterations =  9.6

     total cpu time spent up to now is       19.2 secs

     total energy              =     -91.08521234 Ry
     Harris-Foulkes estimate   =     -92.97428012 Ry
     estimated scf accuracy    <       0.03974570 Ry

     iteration #  2     ecut=    40.00 Ry     beta= 0.50
     Davidson diagonalization with overlap
     ethr =  1.24E-04,  avg # of iterations =  3.9

     total cpu time spent up to now is       20.4 secs

     total energy              =     -91.12950604 Ry
     Harris-Foulkes estimate   =     -91.15281745 Ry
     estimated scf accuracy    <       0.06783073 Ry

     iteration #  3     ecut=    40.00 Ry     beta= 0.50
     Davidson diagonalization with overlap
     ethr =  1.24E-04,  avg # of iterations =  2.1

     total cpu time spent up to now is       21.2 secs

     total energy              =     -91.13236960 Ry
     Harris-Foulkes estimate   =     -91.13528053 Ry
     estimated scf accuracy    <       0.00877389 Ry

     iteration #  4     ecut=    40.00 Ry     beta= 0.50
     Davidson diagonalization with overlap
     ethr =  2.74E-05,  avg # of iterations =  2.4

     total cpu time spent up to now is       22.0 secs

     total energy              =     -91.13234391 Ry
     Harris-Foulkes estimate   =     -91.13305662 Ry
     estimated scf accuracy    <       0.00142041 Ry

     iteration #  5     ecut=    40.00 Ry     beta= 0.50
     Davidson diagonalization with overlap
     ethr =  4.44E-06,  avg # of iterations =  4.1

     total cpu time spent up to now is       23.3 secs

     total energy              =     -91.13265179 Ry
     Harris-Foulkes estimate   =     -91.13265275 Ry
     estimated scf accuracy    <       0.00000340 Ry

     iteration #  6     ecut=    40.00 Ry     beta= 0.50
     Davidson diagonalization with overlap
     ethr =  1.06E-08,  avg # of iterations =  3.7

     total cpu time spent up to now is       24.6 secs

     total energy              =     -91.13265554 Ry
     Harris-Foulkes estimate   =     -91.13265555 Ry
     estimated scf accuracy    <       0.00000064 Ry

     iteration #  7     ecut=    40.00 Ry     beta= 0.50
     Davidson diagonalization with overlap
     ethr =  2.00E-09,  avg # of iterations =  1.6

     total cpu time spent up to now is       25.4 secs

     total energy              =     -91.13265539 Ry
     Harris-Foulkes estimate   =     -91.13265560 Ry
     estimated scf accuracy    <       0.00000036 Ry

     iteration #  8     ecut=    40.00 Ry     beta= 0.50
     Davidson diagonalization with overlap
     ethr =  1.11E-09,  avg # of iterations =  2.0

     total cpu time spent up to now is       26.3 secs

     End of self-consistent calculation

          k = 0.0000 0.0000 0.0000 (  2281 PWs)   bands (ev):

   -14.4666 -14.1482  -9.3142  -9.0962  -8.1244  -7.9441  -3.1907  -1.5444
    -1.1296  -1.0608   2.0635   2.0949   2.1552   2.1559   2.1976   3.2626
     6.2066   7.5298   8.4437  12.9229

          k = 0.0533 0.0006 0.8111 (  2286 PWs)   bands (ev):

   -13.3475 -13.0480  -8.3469  -8.1472  -7.3171  -7.1371  -4.5423  -4.4041
    -1.8491  -1.1039  -1.0119  -0.2787   0.0048   0.0672   3.5164   4.5647
     5.6381   6.7271   9.9653  12.9862

          k =-0.1066-0.0011-1.6223 (  2290 PWs)   bands (ev):

   -10.1133 -10.1132  -9.8651  -9.8650  -5.4915  -5.4915  -5.3389  -5.3389
    -3.8060  -3.8059  -3.6920  -3.6919   1.8452   1.8452   3.1697   3.1699
     7.4478   7.4479   8.3787   8.3789

          k =-0.0228 0.6154-0.0060 (  2294 PWs)   bands (ev):

   -13.8175 -13.5101 -11.9046 -11.6285  -4.6066  -4.4456  -2.4119  -0.8052
    -0.5109  -0.4447  -0.2842  -0.1936  -0.1828   1.0589   1.1147   1.2807
     9.3044   9.4604  10.5476  11.8663

          k = 0.0305 0.6160 0.8052 (  2275 PWs)   bands (ev):

   -12.7075 -12.4178 -10.8352 -10.5772  -4.8325  -4.6724  -3.1760  -3.0602
    -2.8149  -2.6821  -1.1022  -0.2986  -0.2441   0.4414   1.0605   2.4265
     8.2858   9.2739  10.7475  11.3320

          k =-0.1294 0.6143-1.6282 (  2279 PWs)   bands (ev):

    -9.5572  -9.5565  -9.3153  -9.3134  -7.4804  -7.4790  -7.2861  -7.2830
    -1.8120  -1.8076  -1.7373  -1.7324   2.1378   2.1473   3.3775   3.3885
     6.4796   6.4861   7.7199   7.7517

          k =-0.0761 0.6149-0.8171 (  2274 PWs)   bands (ev):

   -12.7076 -12.4191 -10.8348 -10.5749  -4.8316  -4.6715  -3.1780  -3.0626
    -2.8179  -2.6861  -1.0913  -0.2941  -0.2396   0.4224   1.0438   2.4539
     8.2852   9.2771  10.8516  11.3481

          k =-0.4940 0.0259-0.0316 (  2268 PWs)   bands (ev):

   -14.4634 -14.1520  -9.3127  -9.0981  -8.1230  -7.9455  -3.1257  -1.6492
    -1.1297  -1.0604   2.0638   2.0954   2.1552   2.1843   2.1979   3.2184
     6.2697   7.4541   9.1998  11.7054

          k =-0.4408 0.0265 0.7795 (  2280 PWs)   bands (ev):

   -13.3452 -13.0507  -8.3458  -8.1485  -7.3162  -7.1380  -4.5426  -4.4039
    -1.8016  -1.1038  -1.0118  -0.3539   0.0048   0.0670   3.5371   4.5311
     5.6562   6.7125  10.5336  12.9818

          k =-0.6006 0.0248-1.6539 (  2288 PWs)   bands (ev):

   -10.1128 -10.1127  -9.8656  -9.8655  -5.4913  -5.4912  -5.3391  -5.3390
    -3.8058  -3.8057  -3.6921  -3.6920   1.8556   1.8557   3.1538   3.1541
     7.4532   7.4533   8.3714   8.3716

          k =-0.5169 0.6414-0.0376 (  2300 PWs)   bands (ev):

   -13.8147 -13.5134 -11.9026 -11.6307  -4.6064  -4.4459  -2.3533  -0.8991
    -0.5110  -0.4447  -0.2845  -0.1935  -0.1416   1.0588   1.1149   1.2167
     9.4839  10.0025  10.4899  12.4675

          k =-0.4636 0.6419 0.7735 (  2283 PWs)   bands (ev):

   -12.7049 -12.4208 -10.8347 -10.5778  -4.8326  -4.6722  -3.1756  -3.0606
    -2.8149  -2.6827  -1.0479  -0.2986  -0.2441   0.3557   1.0718   2.4092
     8.2823   9.2781  11.2886  11.4360

          k =-0.6235 0.6402-1.6599 (  2275 PWs)   bands (ev):

    -9.5574  -9.5554  -9.3152  -9.3145  -7.4809  -7.4778  -7.2856  -7.2843
    -1.8120  -1.8073  -1.7370  -1.7326   2.1459   2.1568   3.3653   3.3752
     6.4892   6.5012   7.7042   7.7311

          k =-0.5702 0.6408-0.8487 (  2272 PWs)   bands (ev):

   -12.7061 -12.4208 -10.8325 -10.5775  -4.8316  -4.6714  -3.1781  -3.0623
    -2.8186  -2.6854  -1.0607  -0.2942  -0.2396   0.3746   1.0912   2.3824
     8.2850   9.2764  11.2147  11.3214

     the Fermi energy is     4.7998 ev

!    total energy              =     -91.13265548 Ry
     Harris-Foulkes estimate   =     -91.13265550 Ry
     estimated scf accuracy    <       0.00000002 Ry

     The total energy is the sum of the following terms:

     one-electron contribution =     -89.04828761 Ry
     hartree contribution      =      58.09114775 Ry
     xc contribution           =     -27.96458078 Ry
     ewald contribution        =     -32.21148318 Ry
     smearing contrib. (-TS)   =       0.00054834 Ry

     convergence has been achieved in   8 iterations

     Forces acting on atoms (cartesian axes, Ry/au):

     atom    1 type  1   force =    -0.00951146    0.01475419   -0.00050540
     atom    2 type  1   force =     0.00946323   -0.01449586    0.00045019
     atom    3 type  1   force =    -0.01130137   -0.01791227   -0.00083722
     atom    4 type  1   force =     0.01125886    0.01755782    0.00086137
     atom    5 type  1   force =    -0.00965990    0.01476002   -0.00053418
     atom    6 type  1   force =     0.00975182   -0.01440373    0.00051235
     atom    7 type  1   force =    -0.01128717   -0.01792073   -0.00085239
     atom    8 type  1   force =     0.01128598    0.01766056    0.00090529

     Total force =     0.054745     Total SCF correction =     0.000567


     Computing stress (Cartesian axis) and pressure

          total   stress  (Ry/bohr**3)                   (kbar)     P=        0.89
   0.00038082   0.00005085   0.00002754           56.02        7.48        4.05
   0.00005085  -0.00030650   0.00000837            7.48      -45.09        1.23
   0.00002754   0.00000837  -0.00005608            4.05        1.23       -8.25


     number of scf cycles    =   3
     number of bfgs steps    =   2

     enthalpy old            =     -91.1153274746 Ry
     enthalpy new            =     -91.1326166396 Ry

     CASE: enthalpy_new < enthalpy_old

     new trust radius        =       0.0625836607 bohr
     new conv_thr            =       0.0000001792 Ry

     new unit-cell volume =    570.38897 a.u.^3 (    84.52292 Ang^3 )
     density =      1.88602 g/cm^3

CELL_PARAMETERS (bohr)
  15.450539830   0.576966921  -0.982610146
   0.445755158   8.042508593  -0.031323969
  -0.293770654   0.034334327   4.618432060

ATOMIC_POSITIONS (crystal)
C             0.2555220888        0.2153953205        0.5188416237
C             0.6379533925        0.3946590553        0.1805311508
C             0.2554946265        0.3780407876        1.0188134042
C             0.6379774346        0.2319582906       -0.3194384079
C             0.2555415338        0.7153919408        1.0188552326
C             0.6379089226        0.8946779597        0.6804981531
C             0.2554983988        0.8780390215        0.5188213494
C             0.6379576025        0.7319716240        0.1805384941



     Writing output data file ./pp.save/
     NEW-OLD atomic charge density approx. for the potential
     extrapolated charge   31.94893, renormalised to   32.00000

     total cpu time spent up to now is       26.4 secs

     Self-consistent Calculation

     iteration #  1     ecut=    40.00 Ry     beta= 0.50
     Davidson diagonalization with overlap
     c_bands:  1 eigenvalues not converged
     ethr =  1.00E-06,  avg # of iterations =  7.1

     total cpu time spent up to now is       29.0 secs

     total energy              =     -91.13571945 Ry
     Harris-Foulkes estimate   =     -91.26842384 Ry
     estimated scf accuracy    <       0.00110271 Ry

     iteration #  2     ecut=    40.00 Ry     beta= 0.50
     Davidson diagonalization with overlap
     ethr =  3.45E-06,  avg # of iterations =  2.9

     total cpu time spent up to now is       30.3 secs

     total energy              =     -91.13595093 Ry
     Harris-Foulkes estimate   =     -91.13604050 Ry
     estimated scf accuracy    <       0.00019688 Ry

     iteration #  3     ecut=    40.00 Ry     beta= 0.50
     Davidson diagonalization with overlap
     ethr =  6.15E-07,  avg # of iterations =  2.0

     total cpu time spent up to now is       31.4 secs

     total energy              =     -91.13599737 Ry
     Harris-Foulkes estimate   =     -91.13601023 Ry
     estimated scf accuracy    <       0.00004640 Ry

     iteration #  4     ecut=    40.00 Ry     beta= 0.50
     Davidson diagonalization with overlap
     ethr =  1.45E-07,  avg # of iterations =  2.0

     total cpu time spent up to now is       32.4 secs

     total energy              =     -91.13600446 Ry
     Harris-Foulkes estimate   =     -91.13600345 Ry
     estimated scf accuracy    <       0.00000400 Ry

     iteration #  5     ecut=    40.00 Ry     beta= 0.50
     Davidson diagonalization with overlap
     ethr =  1.25E-08,  avg # of iterations =  2.0

     total cpu time spent up to now is       33.4 secs

     End of self-consistent calculation

          k = 0.0000 0.0000 0.0000 (  2281 PWs)   bands (ev):

   -14.5890 -14.3108  -9.3427  -9.1577  -8.0828  -7.9299  -3.2483  -1.7376
    -1.3536  -1.2970   1.9068   1.9403   2.1388   2.3925   2.4172   3.1147
     6.4923   7.7090   8.3524  12.9294

          k = 0.0518 0.0003 0.8141 (  2286 PWs)   bands (ev):

   -13.4674 -13.2064  -8.3900  -8.2214  -7.2412  -7.0882  -4.7463  -4.6295
    -1.8865  -1.2685  -1.1939  -0.4444   0.2008   0.2532   3.5164   4.4471
     5.8498   6.8429   9.8869  13.1672

          k =-0.1035-0.0006-1.6282 (  2290 PWs)   bands (ev):

   -10.2187 -10.2186 -10.0046 -10.0045  -5.5791  -5.5791  -5.4524  -5.4523
    -3.7551  -3.7550  -3.6581  -3.6580   1.8849   1.8851   3.1009   3.1010
     7.5017   7.5019   8.3235   8.3237

          k =-0.0236 0.6221-0.0061 (  2294 PWs)   bands (ev):

   -13.9263 -13.6581 -11.9734 -11.7337  -4.4939  -4.3565  -2.4551  -0.9836
    -0.7329  -0.6786  -0.1926  -0.0459   0.0304   0.8307   0.8759   1.1356
     9.2335   9.7483  10.7379  11.8644

          k = 0.0281 0.6224 0.8080 (  2275 PWs)   bands (ev):

   -12.8140 -12.5620 -10.9008 -10.6775  -4.8458  -4.7101  -3.2410  -3.1424
    -2.9037  -2.7921  -1.1245  -0.1979  -0.1535   0.2907   1.0758   2.3158
     8.4607   9.3506  10.6905  11.4941

          k =-0.1272 0.6215-1.6344 (  2279 PWs)   bands (ev):

    -9.6353  -9.6346  -9.4264  -9.4259  -7.5941  -7.5929  -7.4257  -7.4253
    -1.7468  -1.7459  -1.6842  -1.6838   2.2000   2.2097   3.3305   3.3414
     6.4851   6.4959   7.6201   7.6474

          k =-0.0754 0.6218-0.8203 (  2274 PWs)   bands (ev):

   -12.8135 -12.5626 -10.9017 -10.6768  -4.8465  -4.7105  -3.2400  -3.1418
    -2.9028  -2.7921  -1.1133  -0.1987  -0.1541   0.2730   1.0589   2.3409
     8.4581   9.3535  10.8037  11.5086

          k =-0.4877 0.0269-0.0312 (  2268 PWs)   bands (ev):

   -14.5862 -14.3141  -9.3414  -9.1593  -8.0817  -7.9311  -3.1885  -1.8315
    -1.3537  -1.2967   1.9068   1.9406   2.1634   2.3928   2.4178   3.0777
     6.5518   7.6394   9.0882  11.4373

          k =-0.4360 0.0272 0.7829 (  2280 PWs)   bands (ev):

   -13.4654 -13.2087  -8.3891  -8.2225  -7.2405  -7.0889  -4.7465  -4.6293
    -1.8427  -1.2683  -1.1939  -0.5121   0.2008   0.2531   3.5345   4.4189
     5.8656   6.8305  10.4428  12.9491

          k =-0.5913 0.0263-1.6595 (  2288 PWs)   bands (ev):

   -10.2182 -10.2181 -10.0050 -10.0049  -5.5789  -5.5789  -5.4525  -5.4525
    -3.7550  -3.7549  -3.6581  -3.6580   1.8946   1.8948   3.0865   3.0866
     7.5064   7.5066   8.3173   8.3175

          k =-0.5114 0.6490-0.0374 (  2300 PWs)   bands (ev):

   -13.9239 -13.6610 -11.9718 -11.7355  -4.4939  -4.3567  -2.4016  -1.0668
    -0.7330  -0.6787  -0.1563  -0.0462   0.0304   0.8307   0.8761   1.0811
     9.7731   9.9063  10.6721  12.2202

          k =-0.4596 0.6493 0.7768 (  2283 PWs)   bands (ev):

   -12.8118 -12.5646 -10.9005 -10.6779  -4.8460  -4.7098  -3.2406  -3.1428
    -2.9037  -2.7927  -1.0740  -0.1979  -0.1535   0.2132   1.0843   2.3031
     8.4558   9.3567  11.3149  11.5181

          k =-0.6149 0.6484-1.6656 (  2275 PWs)   bands (ev):

    -9.6348  -9.6342  -9.4269  -9.4263  -7.5934  -7.5931  -7.4265  -7.4251
    -1.7465  -1.7459  -1.6844  -1.6834   2.2078   2.2182   3.3194   3.3296
     6.4969   6.5065   7.6033   7.6321

          k =-0.5631 0.6487-0.8515 (  2272 PWs)   bands (ev):

   -12.8122 -12.5640 -10.8998 -10.6789  -4.8464  -4.7104  -3.2401  -3.1416
    -2.9033  -2.7915  -1.0860  -0.1988  -0.1542   0.2317   1.1022   2.2774
     8.4579   9.3530  11.1457  11.4882

     the Fermi energy is     4.6846 ev

!    total energy              =     -91.13600489 Ry
     Harris-Foulkes estimate   =     -91.13600486 Ry
     estimated scf accuracy    <       0.00000013 Ry

     The total energy is the sum of the following terms:

     one-electron contribution =     -92.27643774 Ry
     hartree contribution      =      59.71496850 Ry
     xc contribution           =     -28.08160453 Ry
     ewald contribution        =     -30.49347812 Ry
     smearing contrib. (-TS)   =       0.00054701 Ry

     convergence has been achieved in   5 iterations

     Forces acting on atoms (cartesian axes, Ry/au):

     atom    1 type  1   force =    -0.00983759   -0.02224863   -0.00058011
     atom    2 type  1   force =     0.00976829    0.02182105    0.00059198
     atom    3 type  1   force =    -0.00732734    0.01984334   -0.00055429
     atom    4 type  1   force =     0.00733978   -0.01928940    0.00052390
     atom    5 type  1   force =    -0.00991943   -0.02224476   -0.00059032
     atom    6 type  1   force =     0.00992779    0.02167465    0.00062421
     atom    7 type  1   force =    -0.00733147    0.01985384   -0.00056855
     atom    8 type  1   force =     0.00737998   -0.01941010    0.00055318

     Total force =     0.063876     Total SCF correction =     0.000531


     Computing stress (Cartesian axis) and pressure

          total   stress  (Ry/bohr**3)                   (kbar)     P=       48.67
   0.00032098   0.00006626  -0.00000729           47.22        9.75       -1.07
   0.00006626   0.00024620   0.00000558            9.75       36.22        0.82
  -0.00000729   0.00000558   0.00042539           -1.07        0.82       62.58


     number of scf cycles    =   4
     number of bfgs steps    =   3

     enthalpy old            =     -91.1326166396 Ry
     enthalpy new            =     -91.1359661121 Ry

     CASE: enthalpy_new < enthalpy_old

     new trust radius        =       0.0856143353 bohr
     new conv_thr            =       0.0000002225 Ry

     new unit-cell volume =    582.11165 a.u.^3 (    86.26005 Ang^3 )
     density =      1.84804 g/cm^3

CELL_PARAMETERS (bohr)
  15.725140089   0.619510777  -0.976895284
   0.474258586   8.019204982  -0.028799982
  -0.295479820   0.034830080   4.645296028

ATOMIC_POSITIONS (crystal)
C             0.2541910610        0.2142250271        0.5182810925
C             0.6392762543        0.3958041893        0.1810837289
C             0.2541920281        0.3785870435        1.0182417036
C             0.6392774520        0.2314382553       -0.3188727219
C             0.2541933685        0.7142239545        1.0182812703
C             0.6392650365        0.8958183353        0.6810805053
C             0.2541966393        0.8785852559        0.5182433604
C             0.6392621603        0.7314519389        0.1811220609



     Writing output data file ./pp.save/
     NEW-OLD atomic charge density approx. for the potential
     extrapolated charge   32.64442, renormalised to   32.00000

     total cpu time spent up to now is       33.5 secs

     Self-consistent Calculation

     iteration #  1     ecut=    40.00 Ry     beta= 0.50
     Davidson diagonalization with overlap
     ethr =  1.00E-06,  avg # of iterations =  7.1

     total cpu time spent up to now is       36.6 secs

     total energy              =     -91.08692695 Ry
     Harris-Foulkes estimate   =     -89.44070329 Ry
     estimated scf accuracy    <       0.04637005 Ry

     iteration #  2     ecut=    40.00 Ry     beta= 0.50
     Davidson diagonalization with overlap
     ethr =  1.45E-04,  avg # of iterations =  4.3

     total cpu time spent up to now is       38.6 secs

     total energy              =     -91.13838600 Ry
     Harris-Foulkes estimate   =     -91.16577834 Ry
     estimated scf accuracy    <       0.07939764 Ry

     iteration #  3     ecut=    40.00 Ry     beta= 0.50
     Davidson diagonalization with overlap
     ethr =  1.45E-04,  avg # of iterations =  2.6

     total cpu time spent up to now is       40.0 secs

     total energy              =     -91.14226286 Ry
     Harris-Foulkes estimate   =     -91.14478421 Ry
     estimated scf accuracy    <       0.01175847 Ry

     iteration #  4     ecut=    40.00 Ry     beta= 0.50
     Davidson diagonalization with overlap
     ethr =  3.67E-05,  avg # of iterations =  1.6

     total cpu time spent up to now is       41.1 secs

     total energy              =     -91.13979699 Ry
     Harris-Foulkes estimate   =     -91.14260421 Ry
     estimated scf accuracy    <       0.00516447 Ry

     iteration #  5     ecut=    40.00 Ry     beta= 0.50
     Davidson diagonalization with overlap
     ethr =  1.61E-05,  avg # of iterations =  3.4

     total cpu time spent up to now is       42.8 secs

     total energy              =     -91.14098304 Ry
     Harris-Foulkes estimate   =     -91.14099473 Ry
     estimated scf accuracy    <       0.00004747 Ry

     iteration #  6     ecut=    40.00 Ry     beta= 0.50
     Davidson diagonalization with overlap
     ethr =  1.48E-07,  avg # of iterations =  3.3

     total cpu time spent up to now is       44.6 secs

     total energy              =     -91.14099121 Ry
     Harris-Foulkes estimate   =     -91.14099961 Ry
     estimated scf accuracy    <       0.00001529 Ry

     iteration #  7     ecut=    40.00 Ry     beta= 0.50
     Davidson diagonalization with overlap
     ethr =  4.78E-08,  avg # of iterations =  2.0

     total cpu time spent up to now is       46.0 secs

     total energy              =     -91.14099501 Ry
     Harris-Foulkes estimate   =     -91.14099523 Ry
     estimated scf accuracy    <       0.00000044 Ry

     iteration #  8     ecut=    40.00 Ry     beta= 0.50
     Davidson diagonalization with overlap
     ethr =  1.38E-09,  avg # of iterations =  2.0

     total cpu time spent up to now is       47.4 secs

     End of self-consistent calculation

          k = 0.0000 0.0000 0.0000 (  2281 PWs)   bands (ev):

   -14.7176 -14.4837  -9.3797  -9.2293  -8.3068  -8.1842  -3.3342  -1.9803
    -1.5654  -1.5187   1.8110   1.8373   2.1060   2.1231   2.1524   2.9945
     6.2883   7.3312   8.1276  12.4840

          k = 0.0503-0.0001 0.8093 (  2286 PWs)   bands (ev):

   -13.6089 -13.3897  -8.4329  -8.2960  -7.5093  -7.3861  -4.9012  -4.8040
    -1.9940  -1.3508  -1.2906  -0.7043  -0.0850  -0.0448   3.5102   4.3111
     5.6128   6.4665   9.6432  13.0109

          k =-0.1006 0.0001-1.6187 (  2290 PWs)   bands (ev):

   -10.4031 -10.4030 -10.2239 -10.2238  -5.6387  -5.6386  -5.5359  -5.5359
    -3.9896  -3.9895  -3.9126  -3.9125   1.7108   1.7110   2.7868   2.7870
     7.4368   7.4370   8.1406   8.1408

          k =-0.0250 0.6241-0.0063 (  2294 PWs)   bands (ev):

   -14.0522 -13.8271 -12.0896 -11.8893  -4.6526  -4.5405  -2.5345  -1.2174
    -0.9292  -0.8846  -0.2555  -0.2477  -0.1952   0.6845   0.7214   0.9363
     9.0193   9.5928  10.4389  11.6702

          k = 0.0253 0.6240 0.8031 (  2275 PWs)   bands (ev):

   -12.9529 -12.7415 -11.0292 -10.8429  -5.0695  -4.9582  -3.3545  -3.2739
    -3.0864  -2.9939  -1.2276  -0.3592  -0.3260   0.0368   0.9909   2.0901
     8.2814   9.0543  10.4562  11.3138

          k =-0.1255 0.6242-1.6250 (  2279 PWs)   bands (ev):

    -9.8260  -9.8243  -9.6513  -9.6506  -7.7172  -7.7148  -7.5768  -7.5759
    -1.9102  -1.9063  -1.8605  -1.8570   2.0239   2.0344   3.0182   3.0280
     6.4020   6.4148   7.4164   7.4421

          k =-0.0753 0.6242-0.8156 (  2274 PWs)   bands (ev):

   -12.9519 -12.7415 -11.0310 -10.8432  -5.0703  -4.9587  -3.3526  -3.2722
    -3.0836  -2.9920  -1.2160  -0.3625  -0.3293   0.0203   0.9734   2.1130
     8.2783   9.0574  10.5741  11.3295

          k =-0.4793 0.0282-0.0307 (  2268 PWs)   bands (ev):

   -14.7152 -14.4865  -9.3786  -9.2306  -8.3059  -8.1852  -3.2793  -2.0637
    -1.5654  -1.5185   1.8110   1.8376   2.1063   2.1236   2.1741   2.9624
     6.3397   7.2758   8.8400  10.9984

          k =-0.4290 0.0282 0.7786 (  2280 PWs)   bands (ev):

   -13.6072 -13.3917  -8.4322  -8.2969  -7.5088  -7.3867  -4.9014  -4.8038
    -1.9539  -1.3507  -1.2905  -0.7644  -0.0851  -0.0449   3.5260   4.2865
     5.6263   6.4572  10.1807  12.4939

          k =-0.5799 0.0284-1.6494 (  2288 PWs)   bands (ev):

   -10.4028 -10.4026 -10.2243 -10.2242  -5.6385  -5.6384  -5.5360  -5.5359
    -3.9895  -3.9893  -3.9126  -3.9125   1.7196   1.7198   2.7742   2.7744
     7.4409   7.4411   8.1354   8.1355

          k =-0.5043 0.6523-0.0370 (  2300 PWs)   bands (ev):

   -14.0501 -13.8294 -12.0882 -11.8908  -4.6526  -4.5405  -2.4862  -1.2905
    -0.9293  -0.8847  -0.2558  -0.2163  -0.1952   0.6845   0.7215   0.8905
     9.6104   9.6619  10.3947  11.8265

          k =-0.4540 0.6523 0.7724 (  2283 PWs)   bands (ev):

   -12.9510 -12.7437 -11.0290 -10.8431  -5.0697  -4.9579  -3.3543  -3.2742
    -3.0864  -2.9944  -1.1810  -0.3592  -0.3260  -0.0326   0.9962   2.0823
     8.2761   9.0607  11.0625  11.3368

          k =-0.6048 0.6525-1.6557 (  2275 PWs)   bands (ev):

    -9.8252  -9.8245  -9.6522  -9.6505  -7.7162  -7.7153  -7.5779  -7.5754
    -1.9100  -1.9063  -1.8607  -1.8567   2.0320   2.0410   3.0075   3.0187
     6.4141   6.4234   7.4006   7.4292

          k =-0.5546 0.6524-0.8463 (  2272 PWs)   bands (ev):

   -12.9509 -12.7426 -11.0293 -10.8450  -5.0702  -4.9586  -3.3527  -3.2719
    -3.0841  -2.9913  -1.1923  -0.3627  -0.3294  -0.0144   1.0128   2.0571
     8.2783   9.0567  10.8832  11.3115

     the Fermi energy is     4.5501 ev

!    total energy              =     -91.14099513 Ry
     Harris-Foulkes estimate   =     -91.14099513 Ry
     estimated scf accuracy    <          2.9E-09 Ry

     The total energy is the sum of the following terms:

     one-electron contribution =     -94.37791060 Ry
     hartree contribution      =      60.54067907 Ry
     xc contribution           =     -28.04566455 Ry
     ewald contribution        =     -29.25864572 Ry
     smearing contrib. (-TS)   =       0.00054666 Ry

     convergence has been achieved in   8 iterations

     Forces acting on atoms (cartesian axes, Ry/au):

     atom    1 type  1   force =    -0.00644927    0.00094922   -0.00060153
     atom    2 type  1   force =     0.00644168   -0.00083806    0.00061910
     atom    3 type  1   force =    -0.00685649   -0.00299255   -0.00029919
     atom    4 type  1   force =     0.00684229    0.00302139    0.00028071
     atom    5 type  1   force =    -0.00645598    0.00095758   -0.00059896
     atom    6 type  1   force =     0.00646387   -0.00099616    0.00061822
     atom    7 type  1   force =    -0.00687468   -0.00298131   -0.00030189
     atom    8 type  1   force =     0.00688860    0.00287988    0.00028353

     Total force =     0.019892     Total SCF correction =     0.000106


     Computing stress (Cartesian axis) and pressure

          total   stress  (Ry/bohr**3)                   (kbar)     P=       33.92
   0.00024576   0.00007271   0.00001448           36.15       10.70        2.13
   0.00007271   0.00043944  -0.00000148           10.70       64.64       -0.22
   0.00001448  -0.00000148   0.00000659            2.13       -0.22        0.97


     number of scf cycles    =   5
     number of bfgs steps    =   4

     enthalpy old            =     -91.1359661121 Ry
     enthalpy new            =     -91.1409555637 Ry

     CASE: enthalpy_new < enthalpy_old

     new trust radius        =       0.1959791667 bohr
     new conv_thr            =       0.0000000689 Ry

     new unit-cell volume =    609.19041 a.u.^3 (    90.27270 Ang^3 )
     density =      1.76589 g/cm^3

CELL_PARAMETERS (bohr)
  16.355454044   0.735767433  -0.939370321
   0.547668774   8.066389726  -0.024514925
  -0.295734261   0.034860601   4.648719968

ATOMIC_POSITIONS (crystal)
C             0.2511384372        0.2127391399        0.5169008793
C             0.6423133720        0.3972735152        0.1824635285
C             0.2511452185        0.3786106600        1.0169892689
C             0.6423177414        0.2314524428       -0.3176458423
C             0.2511091148        0.7127444464        1.0168763695
C             0.6423649712        0.8972578646        0.6825149650
C             0.2511494340        0.8786103451        0.5169792038
C             0.6423157109        0.7314455862        0.1823826273



     Writing output data file ./pp.save/
     NEW-OLD atomic charge density approx. for the potential
     extrapolated charge   33.42240, renormalised to   32.00000

     total cpu time spent up to now is       47.5 secs

     Self-consistent Calculation

     iteration #  1     ecut=    40.00 Ry     beta= 0.50
     Davidson diagonalization with overlap
     ethr =  1.00E-06,  avg # of iterations =  7.7

     total cpu time spent up to now is       51.9 secs

     total energy              =     -90.69962056 Ry
     Harris-Foulkes estimate   =     -87.24992723 Ry
     estimated scf accuracy    <       0.39777091 Ry

     iteration #  2     ecut=    40.00 Ry     beta= 0.50
     Davidson diagonalization with overlap
     ethr =  1.24E-03,  avg # of iterations =  4.7

     total cpu time spent up to now is       54.6 secs

     total energy              =     -91.13030890 Ry
     Harris-Foulkes estimate   =     -91.34933339 Ry
     estimated scf accuracy    <       0.61510362 Ry

     iteration #  3     ecut=    40.00 Ry     beta= 0.50
     Davidson diagonalization with overlap
     ethr =  1.24E-03,  avg # of iterations =  2.1

     total cpu time spent up to now is       56.1 secs

     total energy              =     -91.16070908 Ry
     Harris-Foulkes estimate   =     -91.18074157 Ry
     estimated scf accuracy    <       0.09502031 Ry

     iteration #  4     ecut=    40.00 Ry     beta= 0.50
     Davidson diagonalization with overlap
     ethr =  2.97E-04,  avg # of iterations =  1.6

     total cpu time spent up to now is       57.5 secs

     total energy              =     -91.14520898 Ry
     Harris-Foulkes estimate   =     -91.16314493 Ry
     estimated scf accuracy    <       0.04490291 Ry

     iteration #  5     ecut=    40.00 Ry     beta= 0.50
     Davidson diagonalization with overlap
     ethr =  1.40E-04,  avg # of iterations =  3.2

     total cpu time spent up to now is       59.5 secs

     total energy              =     -91.14797818 Ry
     Harris-Foulkes estimate   =     -91.14962326 Ry
     estimated scf accuracy    <       0.00421045 Ry

     iteration #  6     ecut=    40.00 Ry     beta= 0.50
     Davidson diagonalization with overlap
     ethr =  1.32E-05,  avg # of iterations =  3.5

     total cpu time spent up to now is       61.6 secs

     total energy              =     -91.14817714 Ry
     Harris-Foulkes estimate   =     -91.14841325 Ry
     estimated scf accuracy    <       0.00054625 Ry

     iteration #  7     ecut=    40.00 Ry     beta= 0.50
     Davidson diagonalization with overlap
     ethr =  1.71E-06,  avg # of iterations =  3.4

     total cpu time spent up to now is       63.8 secs

     total energy              =     -91.14825257 Ry
     Harris-Foulkes estimate   =     -91.14826480 Ry
     estimated scf accuracy    <       0.00002518 Ry

     iteration #  8     ecut=    40.00 Ry     beta= 0.50
     Davidson diagonalization with overlap
     ethr =  7.87E-08,  avg # of iterations =  2.0

     total cpu time spent up to now is       65.5 secs

     total energy              =     -91.14825618 Ry
     Harris-Foulkes estimate   =     -91.14825666 Ry
     estimated scf accuracy    <       0.00000176 Ry

     iteration #  9     ecut=    40.00 Ry     beta= 0.50
     Davidson diagonalization with overlap
     ethr =  5.51E-09,  avg # of iterations =  2.1

     total cpu time spent up to now is       67.2 secs

     total energy              =     -91.14825604 Ry
     Harris-Foulkes estimate   =     -91.14825639 Ry
     estimated scf accuracy    <       0.00000057 Ry

     iteration # 10     ecut=    40.00 Ry     beta= 0.50
     Davidson diagonalization with overlap
     ethr =  1.78E-09,  avg # of iterations =  2.0

     total cpu time spent up to now is       69.0 secs

     End of self-consistent calculation

          k = 0.0000 0.0000 0.0000 (  2281 PWs)   bands (ev):

   -15.0042 -14.8481  -9.7605  -9.6697  -8.6707  -8.5957  -3.5319  -2.4856
    -1.8377  -1.8094   1.5038   1.5184   1.5817   1.5897   1.8857   2.4706
     5.9411   6.6932   7.6473  11.8769

          k = 0.0465-0.0007 0.8085 (  2286 PWs)   bands (ev):

   -13.8975 -13.7519  -8.8096  -8.7273  -7.8800  -7.8047  -5.1804  -5.1181
    -2.2004  -1.6877  -1.6526  -1.2088  -0.5364  -0.5143   3.2356   3.7915
     5.2826   5.8920   9.1620  12.6271

          k =-0.0929 0.0014-1.6170 (  2290 PWs)   bands (ev):

   -10.6993 -10.6993 -10.5820 -10.5820  -6.0020  -6.0019  -5.9410  -5.9410
    -4.3699  -4.3698  -4.3241  -4.3240   1.4693   1.4694   2.2763   2.2763
     7.1305   7.1306   7.6094   7.6095

          k =-0.0283 0.6209-0.0065 (  2294 PWs)   bands (ev):

   -14.3488 -14.1990 -12.4160 -12.2840  -5.0820  -5.0104  -2.7433  -1.7294
    -1.2088  -1.1817  -0.7477  -0.7106  -0.4884   0.3877   0.4096   0.4096
     8.5369   9.1980   9.8161  11.1879

          k = 0.0182 0.6202 0.8021 (  2275 PWs)   bands (ev):

   -13.2515 -13.1113 -11.3578 -11.2357  -5.4194  -5.3495  -3.7194  -3.6690
    -3.4190  -3.3607  -1.4457  -0.8053  -0.7873  -0.4757   0.7406   1.5664
     7.9453   8.4970   9.9706  10.9549

          k =-0.1212 0.6223-1.6235 (  2279 PWs)   bands (ev):

   -10.1363 -10.1340 -10.0225 -10.0211  -8.0373  -8.0361  -7.9479  -7.9456
    -2.3296  -2.3295  -2.3002  -2.2998   1.7680   1.7809   2.5049   2.5105
     6.1383   6.1462   6.8910   6.9190

          k =-0.0748 0.6216-0.8150 (  2274 PWs)   bands (ev):

   -13.2507 -13.1114 -11.3593 -11.2360  -5.4153  -5.3453  -3.7229  -3.6726
    -3.4207  -3.3631  -1.4339  -0.8030  -0.7851  -0.4897   0.7229   1.5848
     7.9460   8.5034  10.0996  10.9639

          k =-0.4610 0.0312-0.0296 (  2268 PWs)   bands (ev):

   -15.0024 -14.8501  -9.7598  -9.6706  -8.6701  -8.5963  -3.4866  -2.5499
    -1.8377  -1.8092   1.5038   1.5187   1.5820   1.5901   1.9015   2.4483
     5.9810   6.6557   8.3105  10.0896

          k =-0.4146 0.0305 0.7789 (  2280 PWs)   bands (ev):

   -13.8963 -13.7533  -8.8092  -8.7279  -7.8797  -7.8050  -5.1806  -5.1180
    -2.1674  -1.6875  -1.6526  -1.2550  -0.5364  -0.5144   3.2470   3.7744
     5.2929   5.8859   9.6602  11.6046

          k =-0.5540 0.0326-1.6466 (  2288 PWs)   bands (ev):

   -10.6991 -10.6990 -10.5823 -10.5822  -6.0018  -6.0018  -5.9410  -5.9410
    -4.3698  -4.3697  -4.3241  -4.3240   1.4764   1.4766   2.2668   2.2668
     7.1335   7.1336   7.6060   7.6061

          k =-0.4893 0.6521-0.0360 (  2300 PWs)   bands (ev):

   -14.3473 -14.2006 -12.4152 -12.2849  -5.0822  -5.0103  -2.7047  -1.7837
    -1.2088  -1.1818  -0.7479  -0.7106  -0.4666   0.3799   0.3878   0.4097
     9.1119   9.2096   9.7888  10.9635

          k =-0.4429 0.6514 0.7725 (  2283 PWs)   bands (ev):

   -13.2500 -13.1129 -11.3578 -11.2357  -5.4195  -5.3493  -3.7193  -3.6690
    -3.4190  -3.3611  -1.4067  -0.8052  -0.7873  -0.5298   0.7402   1.5668
     7.9401   8.5030  10.5543  10.9723

          k =-0.5823 0.6535-1.6530 (  2275 PWs)   bands (ev):

   -10.1356 -10.1341 -10.0232 -10.0209  -8.0378  -8.0354  -7.9475  -7.9464
    -2.3295  -2.3293  -2.3000  -2.2999   1.7776   1.7827   2.4933   2.5074
     6.1426   6.1582   6.8850   6.9041

          k =-0.5358 0.6528-0.8445 (  2272 PWs)   bands (ev):

   -13.2500 -13.1121 -11.3582 -11.2372  -5.4153  -5.3452  -3.7230  -3.6724
    -3.4210  -3.3626  -1.4171  -0.8033  -0.7851  -0.5127   0.7543   1.5432
     7.9459   8.5033  10.3441  10.9546

     the Fermi energy is     4.0323 ev

!    total energy              =     -91.14825615 Ry
     Harris-Foulkes estimate   =     -91.14825615 Ry
     estimated scf accuracy    <          1.1E-09 Ry

     The total energy is the sum of the following terms:

     one-electron contribution =     -99.09328741 Ry
     hartree contribution      =      62.40971307 Ry
     xc contribution           =     -27.97240882 Ry
     ewald contribution        =     -26.49285069 Ry
     smearing contrib. (-TS)   =       0.00057769 Ry

     convergence has been achieved in  10 iterations

     Forces acting on atoms (cartesian axes, Ry/au):

     atom    1 type  1   force =    -0.00257207    0.01326059    0.00018582
     atom    2 type  1   force =     0.00266526   -0.01269264   -0.00029775
     atom    3 type  1   force =    -0.00463908   -0.01445759   -0.00073582
     atom    4 type  1   force =     0.00457748    0.01381058    0.00087824
     atom    5 type  1   force =    -0.00243491    0.01326809    0.00021474
     atom    6 type  1   force =     0.00243823   -0.01262693   -0.00036089
     atom    7 type  1   force =    -0.00469263   -0.01446122   -0.00072118
     atom    8 type  1   force =     0.00465771    0.01389913    0.00083685

     Total force =     0.039864     Total SCF correction =     0.000126


     Computing stress (Cartesian axis) and pressure

          total   stress  (Ry/bohr**3)                   (kbar)     P=        6.49
   0.00013147   0.00003804   0.00001495           19.34        5.60        2.20
   0.00003804   0.00011321  -0.00000370            5.60       16.65       -0.54
   0.00001495  -0.00000370  -0.00011232            2.20       -0.54      -16.52


     number of scf cycles    =   6
     number of bfgs steps    =   5

     enthalpy old            =     -91.1409555637 Ry
     enthalpy new            =     -91.1482147411 Ry

     CASE: enthalpy_new < enthalpy_old

     new trust radius        =       0.2207549848 bohr
     new conv_thr            =       0.0000001446 Ry

     new unit-cell volume =    636.67116 a.u.^3 (    94.34493 Ang^3 )
     density =      1.68967 g/cm^3

CELL_PARAMETERS (bohr)
  17.078387290   0.865416606  -0.895018386
   0.631087794   8.077280136  -0.020344182
  -0.295856460   0.034219556   4.649262563

ATOMIC_POSITIONS (crystal)
C             0.2476780934        0.2123144869        0.5155355929
C             0.6457652852        0.3977630686        0.1837870606
C             0.2475682162        0.3773383678        1.0152933512
C             0.6458842036        0.2326507924       -0.3159251338
C             0.2476308320        0.7123270631        1.0154977855
C             0.6458571400        0.8977462646        0.6838702036
C             0.2475663360        0.8773378725        0.5152742217
C             0.6459038936        0.7326560842        0.1841279184



     Writing output data file ./pp.save/
     NEW-OLD atomic charge density approx. for the potential
     extrapolated charge   33.38121, renormalised to   32.00000

     total cpu time spent up to now is       69.1 secs

     Self-consistent Calculation

     iteration #  1     ecut=    40.00 Ry     beta= 0.50
     Davidson diagonalization with overlap
     ethr =  1.00E-06,  avg # of iterations =  7.7

     total cpu time spent up to now is       75.8 secs

     total energy              =     -90.72458464 Ry
     Harris-Foulkes estimate   =     -87.14626222 Ry
     estimated scf accuracy    <       0.38135333 Ry

     iteration #  2     ecut=    40.00 Ry     beta= 0.50
     Davidson diagonalization with overlap
     ethr =  1.19E-03,  avg # of iterations =  4.5

     total cpu time spent up to now is       79.1 secs

     total energy              =     -91.13455974 Ry
     Harris-Foulkes estimate   =     -91.33967647 Ry
     estimated scf accuracy    <       0.57209251 Ry

     iteration #  3     ecut=    40.00 Ry     beta= 0.50
     Davidson diagonalization with overlap
     ethr =  1.19E-03,  avg # of iterations =  2.7

     total cpu time spent up to now is       81.2 secs

     total energy              =     -91.16500273 Ry
     Harris-Foulkes estimate   =     -91.18246651 Ry
     estimated scf accuracy    <       0.08635583 Ry

     iteration #  4     ecut=    40.00 Ry     beta= 0.50
     Davidson diagonalization with overlap
     ethr =  2.70E-04,  avg # of iterations =  1.4

     total cpu time spent up to now is       82.8 secs

     total energy              =     -91.14818825 Ry
     Harris-Foulkes estimate   =     -91.16700731 Ry
     estimated scf accuracy    <       0.04309386 Ry

     iteration #  5     ecut=    40.00 Ry     beta= 0.50
     Davidson diagonalization with overlap
     ethr =  1.35E-04,  avg # of iterations =  2.8

     total cpu time spent up to now is       85.1 secs

     total energy              =     -91.15229936 Ry
     Harris-Foulkes estimate   =     -91.15321690 Ry
     estimated scf accuracy    <       0.00238597 Ry

     iteration #  6     ecut=    40.00 Ry     beta= 0.50
     Davidson diagonalization with overlap
     ethr =  7.46E-06,  avg # of iterations =  3.7

     total cpu time spent up to now is       87.9 secs

     total energy              =     -91.15232197 Ry
     Harris-Foulkes estimate   =     -91.15252532 Ry
     estimated scf accuracy    <       0.00041697 Ry

     iteration #  7     ecut=    40.00 Ry     beta= 0.50
     Davidson diagonalization with overlap
     ethr =  1.30E-06,  avg # of iterations =  2.9

     total cpu time spent up to now is       90.5 secs

     total energy              =     -91.15239497 Ry
     Harris-Foulkes estimate   =     -91.15239931 Ry
     estimated scf accuracy    <       0.00000797 Ry

     iteration #  8     ecut=    40.00 Ry     beta= 0.50
     Davidson diagonalization with overlap
     ethr =  2.49E-08,  avg # of iterations =  2.8

     total cpu time spent up to now is       93.1 secs

     total energy              =     -91.15239691 Ry
     Harris-Foulkes estimate   =     -91.15239707 Ry
     estimated scf accuracy    <       0.00000062 Ry

     iteration #  9     ecut=    40.00 Ry     beta= 0.50
     Davidson diagonalization with overlap
     ethr =  1.95E-09,  avg # of iterations =  2.0

     total cpu time spent up to now is       95.2 secs

     total energy              =     -91.15239688 Ry
     Harris-Foulkes estimate   =     -91.15239699 Ry
     estimated scf accuracy    <       0.00000022 Ry

     iteration # 10     ecut=    40.00 Ry     beta= 0.50
     Davidson diagonalization with overlap
     ethr =  6.96E-10,  avg # of iterations =  2.0

     total cpu time spent up to now is       97.4 secs

     End of self-consistent calculation

          k = 0.0000 0.0000 0.0000 (  2281 PWs)   bands (ev):

   -15.3296 -15.2330 -10.1448 -10.0964  -8.9814  -8.9406  -3.7594  -2.9905
    -2.2098  -2.1942   1.0727   1.0806   1.2457   1.2520   1.5834   1.9476
     5.7196   6.2216   7.1742  11.0290

          k = 0.0424-0.0013 0.8082 (  2286 PWs)   bands (ev):

   -14.2253 -14.1357  -9.1975  -9.1539  -8.1875  -8.1461  -5.5426  -5.5063
    -2.4305  -2.1023  -2.0845  -1.7056  -0.8640  -0.8524   2.9303   3.2762
     5.0392   5.4430   8.6903  12.0230

          k =-0.0848 0.0026-1.6163 (  2290 PWs)   bands (ev):

   -11.0321 -11.0320 -10.9613 -10.9612  -6.4002  -6.4002  -6.3686  -6.3686
    -4.6947  -4.6945  -4.6703  -4.6702   1.2311   1.2311   1.8059   1.8062
     6.8098   6.8099   7.1020   7.1022

          k =-0.0318 0.6206-0.0066 (  2294 PWs)   bands (ev):

   -14.6777 -14.5853 -12.7560 -12.6755  -5.4318  -5.3898  -2.9770  -2.2362
    -1.5888  -1.5740  -1.0972  -1.0760  -0.7450  -0.1031  -0.0177  -0.0059
     8.0705   8.9139   9.3387  10.7450

          k = 0.0106 0.6193 0.8016 (  2275 PWs)   bands (ev):

   -13.5824 -13.4964 -11.7009 -11.6271  -5.7583  -5.7183  -4.0980  -4.0693
    -3.7894  -3.7560  -1.6803  -1.1723  -1.1636  -0.9732   0.4798   1.0642
     7.6640   8.0322   9.5031  10.6290

          k =-0.1166 0.6232-1.6229 (  2279 PWs)   bands (ev):

   -10.4700 -10.4680 -10.4025 -10.3998  -8.3999  -8.3949  -8.3461  -8.3419
    -2.6948  -2.6912  -2.6784  -2.6752   1.5315   1.5330   2.0348   2.0509
     5.8387   5.8589   6.3794   6.3898

          k =-0.0742 0.6219-0.8148 (  2274 PWs)   bands (ev):

   -13.5823 -13.4970 -11.7006 -11.6259  -5.7663  -5.7262  -4.0900  -4.0612
    -3.7839  -3.7509  -1.6718  -1.1789  -1.1700  -0.9880   0.4692   1.0849
     7.6551   8.0289   9.6407  10.6375

          k =-0.4418 0.0344-0.0284 (  2268 PWs)   bands (ev):

   -15.3284 -15.2343 -10.1444 -10.0969  -8.9811  -8.9410  -3.7230  -3.0388
    -2.2098  -2.1941   1.0727   1.0808   1.2460   1.2523   1.5937   1.9335
     5.7487   6.1974   7.7870   9.2179

          k =-0.3994 0.0332 0.7798 (  2280 PWs)   bands (ev):

   -14.2244 -14.1366  -9.1972  -9.1542  -8.1872  -8.1463  -5.5427  -5.5062
    -2.4041  -2.1022  -2.0845  -1.7403  -0.8641  -0.8525   2.9377   3.2656
     5.0463   5.4394   9.1492  10.7537

          k =-0.5266 0.0370-1.6447 (  2288 PWs)   bands (ev):

   -11.0319 -11.0318 -10.9614 -10.9613  -6.4001  -6.4001  -6.3686  -6.3686
    -4.6946  -4.6945  -4.6703  -4.6702   1.2367   1.2367   1.7989   1.7991
     6.8117   6.8119   7.1000   7.1002

          k =-0.4736 0.6551-0.0350 (  2300 PWs)   bands (ev):

   -14.6767 -14.5863 -12.7555 -12.6759  -5.4321  -5.3896  -2.9476  -2.2749
    -1.5889  -1.5741  -1.0974  -1.0760  -0.7322  -0.1196  -0.0176  -0.0058
     8.5702   8.9226   9.3197  10.1395

          k =-0.4311 0.6538 0.7732 (  2283 PWs)   bands (ev):

   -13.5813 -13.4974 -11.7011 -11.6269  -5.7584  -5.7181  -4.0980  -4.0692
    -3.7895  -3.7563  -1.6487  -1.1723  -1.1637  -1.0143   0.4750   1.0703
     7.6587   8.0382  10.0622  10.6390

          k =-0.5584 0.6576-1.6513 (  2275 PWs)   bands (ev):

   -10.4702 -10.4675 -10.4023 -10.4003  -8.3994  -8.3952  -8.3467  -8.3416
    -2.6946  -2.6912  -2.6785  -2.6750   1.5292   1.5441   2.0367   2.0386
     5.8533   5.8565   6.3628   6.3920

          k =-0.5160 0.6563-0.8431 (  2272 PWs)   bands (ev):

   -13.5819 -13.4973 -11.6999 -11.6266  -5.7663  -5.7261  -4.0901  -4.0611
    -3.7841  -3.7505  -1.6610  -1.1792  -1.1699  -1.0019   0.4924   1.0559
     7.6551   8.0287   9.8212  10.6360

     the Fermi energy is     3.4988 ev

!    total energy              =     -91.15239691 Ry
     Harris-Foulkes estimate   =     -91.15239691 Ry
     estimated scf accuracy    <          4.6E-09 Ry

     The total energy is the sum of the following terms:

     one-electron contribution =    -104.98251209 Ry
     hartree contribution      =      64.89982014 Ry
     xc contribution           =     -27.94527135 Ry
     ewald contribution        =     -23.12533348 Ry
     smearing contrib. (-TS)   =       0.00089987 Ry

     convergence has been achieved in  10 iterations

     Forces acting on atoms (cartesian axes, Ry/au):

     atom    1 type  1   force =    -0.00188312    0.00417256   -0.00127177
     atom    2 type  1   force =     0.00187332   -0.00487237    0.00151683
     atom    3 type  1   force =    -0.00148762   -0.00465474    0.00093804
     atom    4 type  1   force =     0.00160904    0.00545564   -0.00113428
     atom    5 type  1   force =    -0.00166527    0.00415623   -0.00123090
     atom    6 type  1   force =     0.00146551   -0.00493999    0.00142176
     atom    7 type  1   force =    -0.00153484   -0.00463604    0.00096624
     atom    8 type  1   force =     0.00162298    0.00531871   -0.00120590

     Total force =     0.014759     Total SCF correction =     0.000144


     Computing stress (Cartesian axis) and pressure

          total   stress  (Ry/bohr**3)                   (kbar)     P=       -2.41
   0.00005331   0.00001268   0.00000920            7.84        1.87        1.35
   0.00001268  -0.00001623   0.00000579            1.87       -2.39        0.85
   0.00000920   0.00000579  -0.00008615            1.35        0.85      -12.67


     number of scf cycles    =   7
     number of bfgs steps    =   6

     enthalpy old            =     -91.1482147411 Ry
     enthalpy new            =     -91.1523536260 Ry

     CASE: enthalpy_new < enthalpy_old

     new trust radius        =       0.1642284762 bohr
     new conv_thr            =       0.0000000546 Ry

     new unit-cell volume =    655.66401 a.u.^3 (    97.15938 Ang^3 )
     density =      1.64072 g/cm^3

CELL_PARAMETERS (bohr)
  17.628323688   0.962676469  -0.858430830
   0.694043246   8.072143132  -0.014360003
  -0.295459483   0.035389805   4.643920138

ATOMIC_POSITIONS (crystal)
C             0.2449254357        0.2117954108        0.5139668855
C             0.6485101473        0.3981185281        0.1854288636
C             0.2448928155        0.3765634210        1.0144730056
C             0.6485655785        0.2336147296       -0.3151746493
C             0.2448854078        0.7118087219        1.0139343756
C             0.6485921319        0.8980776235        0.6855015688
C             0.2448832891        0.8765675178        0.5144540182
C             0.6485991942        0.7335880474        0.1848769320



     Writing output data file ./pp.save/
     NEW-OLD atomic charge density approx. for the potential
     extrapolated charge   32.92695, renormalised to   32.00000

     total cpu time spent up to now is       97.5 secs

     Self-consistent Calculation

     iteration #  1     ecut=    40.00 Ry     beta= 0.50
     Davidson diagonalization with overlap
     ethr =  1.00E-06,  avg # of iterations =  9.9

     total cpu time spent up to now is      110.4 secs

     total energy              =     -91.03340378 Ry
     Harris-Foulkes estimate   =     -88.33143256 Ry
     estimated scf accuracy    <       0.10690913 Ry

     iteration #  2     ecut=    40.00 Ry     beta= 0.50
     Davidson diagonalization with overlap
     ethr =  3.34E-04,  avg # of iterations =  4.6

     total cpu time spent up to now is      114.4 secs

     total energy              =     -91.14753803 Ry
     Harris-Foulkes estimate   =     -91.20502252 Ry
     estimated scf accuracy    <       0.16191209 Ry

     iteration #  3     ecut=    40.00 Ry     beta= 0.50
     Davidson diagonalization with overlap
     ethr =  3.34E-04,  avg # of iterations =  2.4

     total cpu time spent up to now is      116.9 secs

     total energy              =     -91.15724751 Ry
     Harris-Foulkes estimate   =     -91.16136651 Ry
     estimated scf accuracy    <       0.02282794 Ry

     iteration #  4     ecut=    40.00 Ry     beta= 0.50
     Davidson diagonalization with overlap
     ethr =  7.13E-05,  avg # of iterations =  1.8

     total cpu time spent up to now is      118.9 secs

     total energy              =     -91.15074421 Ry
     Harris-Foulkes estimate   =     -91.15772003 Ry
     estimated scf accuracy    <       0.01232907 Ry

     iteration #  5     ecut=    40.00 Ry     beta= 0.50
     Davidson diagonalization with overlap
     ethr =  3.85E-05,  avg # of iterations =  3.2

     total cpu time spent up to now is      122.0 secs

     total energy              =     -91.15356652 Ry
     Harris-Foulkes estimate   =     -91.15361002 Ry
     estimated scf accuracy    <       0.00015815 Ry

     iteration #  6     ecut=    40.00 Ry     beta= 0.50
     Davidson diagonalization with overlap
     ethr =  4.94E-07,  avg # of iterations =  3.6

     total cpu time spent up to now is      125.4 secs

     total energy              =     -91.15358720 Ry
     Harris-Foulkes estimate   =     -91.15360094 Ry
     estimated scf accuracy    <       0.00003904 Ry

     iteration #  7     ecut=    40.00 Ry     beta= 0.50
     Davidson diagonalization with overlap
     ethr =  1.22E-07,  avg # of iterations =  2.0

     total cpu time spent up to now is      127.7 secs

     total energy              =     -91.15358766 Ry
     Harris-Foulkes estimate   =     -91.15359115 Ry
     estimated scf accuracy    <       0.00000573 Ry

     iteration #  8     ecut=    40.00 Ry     beta= 0.50
     Davidson diagonalization with overlap
     ethr =  1.79E-08,  avg # of iterations =  2.1

     total cpu time spent up to now is      130.5 secs

     total energy              =     -91.15358943 Ry
     Harris-Foulkes estimate   =     -91.15358996 Ry
     estimated scf accuracy    <       0.00000124 Ry

     iteration #  9     ecut=    40.00 Ry     beta= 0.50
     Davidson diagonalization with overlap
     ethr =  3.89E-09,  avg # of iterations =  2.0

     total cpu time spent up to now is      132.9 secs

     total energy              =     -91.15358959 Ry
     Harris-Foulkes estimate   =     -91.15358961 Ry
     estimated scf accuracy    <       0.00000005 Ry

     iteration # 10     ecut=    40.00 Ry     beta= 0.50
     Davidson diagonalization with overlap
     ethr =  1.71E-10,  avg # of iterations =  2.4

     total cpu time spent up to now is      135.8 secs

     End of self-consistent calculation

          k = 0.0000 0.0000 0.0000 (  2281 PWs)   bands (ev):

   -15.5715 -15.5049 -10.4035 -10.3747  -9.2125  -9.1835  -3.9335  -3.3302
    -2.4562  -2.4462   0.8008   0.8134   1.0194   1.0436   1.3780   1.6223
     5.5705   5.9255   6.8606  10.2852

          k = 0.0395-0.0020 0.8089 (  2286 PWs)   bands (ev):

   -14.4660 -14.4045  -9.4568  -9.4311  -8.4103  -8.3802  -5.7936  -5.7699
    -2.6030  -2.3665  -2.3545  -2.0365  -1.0917  -1.0711   2.7268   2.9583
     4.8767   5.1634   8.3811  11.3663

          k =-0.0790 0.0039-1.6178 (  2290 PWs)   bands (ev):

   -11.2682 -11.2680 -11.2203 -11.2201  -6.6612  -6.6611  -6.6429  -6.6428
    -4.9288  -4.9288  -4.9085  -4.9081   1.0626   1.0629   1.5025   1.5028
     6.6084   6.6087   6.8015   6.8017

          k =-0.0343 0.6215-0.0069 (  2294 PWs)   bands (ev):

   -14.9202 -14.8567 -13.0004 -12.9457  -5.6709  -5.6407  -3.1527  -2.5743
    -1.8377  -1.8280  -1.3310  -1.3091  -0.9284  -0.4361  -0.2760  -0.2660
     7.7647   8.7403   9.0529  10.4662

          k = 0.0052 0.6195 0.8020 (  2275 PWs)   bands (ev):

   -13.8242 -13.7653 -11.9428 -11.8928  -6.0046  -5.9785  -4.3382  -4.3189
    -4.0219  -4.0000  -1.8568  -1.4312  -1.4212  -1.3056   0.3040   0.7489
     7.4744   7.7406   9.1981  10.4420

          k =-0.1133 0.6254-1.6247 (  2279 PWs)   bands (ev):

   -10.7068 -10.7000 -10.6608 -10.6545  -8.6530  -8.6415  -8.6179  -8.6056
    -2.9433  -2.9360  -2.9300  -2.9205   1.3492   1.3748   1.7393   1.7501
     5.6557   5.6674   6.0468   6.0890

          k =-0.0738 0.6234-0.8158 (  2274 PWs)   bands (ev):

   -13.8231 -13.7648 -11.9453 -11.8945  -5.9842  -5.9568  -4.3586  -4.3401
    -4.0357  -4.0145  -1.8433  -1.4161  -1.4028  -1.3133   0.2832   0.7550
     7.4882   7.7613   9.3458  10.4333

          k =-0.4282 0.0368-0.0275 (  2268 PWs)   bands (ev):

   -15.5705 -15.5059 -10.4032 -10.3750  -9.2124  -9.1837  -3.9023  -3.3695
    -2.4561  -2.4461   0.8009   0.8135   1.0198   1.0440   1.3852   1.6121
     5.5925   5.9088   7.4391   8.6542

          k =-0.3887 0.0348 0.7814 (  2280 PWs)   bands (ev):

   -14.4654 -14.4052  -9.4567  -9.4313  -8.4101  -8.3803  -5.7937  -5.7699
    -2.5805  -2.3664  -2.3545  -2.0649  -1.0918  -1.0711   2.7322   2.9510
     4.8816   5.1616   8.8130  10.2049

          k =-0.5072 0.0407-1.6453 (  2288 PWs)   bands (ev):

   -11.2680 -11.2679 -11.2204 -11.2202  -6.6612  -6.6611  -6.6428  -6.6428
    -4.9288  -4.9288  -4.9085  -4.9081   1.0672   1.0674   1.4969   1.4971
     6.6098   6.6101   6.8002   6.8004

          k =-0.4625 0.6583-0.0344 (  2300 PWs)   bands (ev):

   -14.9194 -14.8574 -13.0002 -12.9459  -5.6711  -5.6405  -3.1288  -2.6044
    -1.8378  -1.8281  -1.3312  -1.3092  -0.9210  -0.4457  -0.2759  -0.2659
     8.2096   8.7488   9.0381   9.6131

          k =-0.4230 0.6563 0.7745 (  2283 PWs)   bands (ev):

   -13.8234 -13.7661 -11.9430 -11.8926  -6.0048  -5.9783  -4.3383  -4.3188
    -4.0220  -4.0003  -1.8300  -1.4311  -1.4213  -1.3393   0.2970   0.7575
     7.4690   7.7464   9.7349  10.4385

          k =-0.5415 0.6622-1.6523 (  2275 PWs)   bands (ev):

[...]

ATOMIC_POSITIONS (crystal)
C             0.2001147043        0.2061093052        0.4873594397
C             0.6937766150        0.4036720488        0.2123115945
C             0.2002654097        0.3704957806        0.9873892562
C             0.6936309442        0.2391731055       -0.2879119872
C             0.2007693769        0.7056324234        0.9876825080
C             0.6922440246        0.9047799362        0.7115621714
C             0.2008614800        0.8700726315        0.4876787358
C             0.6921914453        0.7401987689        0.2113892817



     Writing output data file ./pp.save/
     NEW-OLD atomic charge density approx. for the potential
     extrapolated charge   32.43585, renormalised to   32.00000

     total cpu time spent up to now is     2142.4 secs

     Self-consistent Calculation

     iteration #  1     ecut=    40.00 Ry     beta= 0.50
     Davidson diagonalization with overlap
     c_bands:  1 eigenvalues not converged
     ethr =  1.00E-06,  avg # of iterations =  7.4

     total cpu time spent up to now is     2173.9 secs

     total energy              =     -91.15271880 Ry
     Harris-Foulkes estimate   =     -90.66129733 Ry
     estimated scf accuracy    <       0.00248058 Ry

     iteration #  2     ecut=    40.00 Ry     beta= 0.50
     Davidson diagonalization with overlap
     c_bands:  1 eigenvalues not converged
     ethr =  7.75E-06,  avg # of iterations =  5.3

     total cpu time spent up to now is     2196.7 secs

     total energy              =     -91.15815292 Ry
     Harris-Foulkes estimate   =     -91.15876602 Ry
     estimated scf accuracy    <       0.00190945 Ry

     iteration #  3     ecut=    40.00 Ry     beta= 0.50
     Davidson diagonalization with overlap
     ethr =  5.97E-06,  avg # of iterations =  1.0

     total cpu time spent up to now is     2205.6 secs

     total energy              =     -91.15776910 Ry
     Harris-Foulkes estimate   =     -91.15820902 Ry
     estimated scf accuracy    <       0.00070344 Ry

     iteration #  4     ecut=    40.00 Ry     beta= 0.50
     Davidson diagonalization with overlap
     ethr =  2.20E-06,  avg # of iterations =  4.1

     total cpu time spent up to now is     2223.7 secs

     total energy              =     -91.15790176 Ry
     Harris-Foulkes estimate   =     -91.15790135 Ry
     estimated scf accuracy    <       0.00000476 Ry

     iteration #  5     ecut=    40.00 Ry     beta= 0.50
     Davidson diagonalization with overlap
     ethr =  1.49E-08,  avg # of iterations =  2.4

     total cpu time spent up to now is     2237.6 secs

     total energy              =     -91.15790007 Ry
     Harris-Foulkes estimate   =     -91.15790287 Ry
     estimated scf accuracy    <       0.00000525 Ry

     iteration #  6     ecut=    40.00 Ry     beta= 0.50
     Davidson diagonalization with overlap
     ethr =  1.49E-08,  avg # of iterations =  2.0

     total cpu time spent up to now is     2249.7 secs

     total energy              =     -91.15790046 Ry
     Harris-Foulkes estimate   =     -91.15790058 Ry
     estimated scf accuracy    <       0.00000027 Ry

     iteration #  7     ecut=    40.00 Ry     beta= 0.50
     Davidson diagonalization with overlap
     ethr =  8.37E-10,  avg # of iterations =  2.0

     total cpu time spent up to now is     2262.4 secs

     total energy              =     -91.15790052 Ry
     Harris-Foulkes estimate   =     -91.15790058 Ry
     estimated scf accuracy    <       0.00000012 Ry

     iteration #  8     ecut=    40.00 Ry     beta= 0.50
     Davidson diagonalization with overlap
     ethr =  3.67E-10,  avg # of iterations =  2.0

     total cpu time spent up to now is     2274.9 secs

     End of self-consistent calculation

          k = 0.0000 0.0000 0.0000 (  2281 PWs)   bands (ev):

   -13.9252 -13.8240  -8.7370  -8.7020  -7.5457  -7.5165  -2.4361  -1.4754
    -0.7891  -0.7867   2.4716   2.4767   2.6937   2.7094   3.0192   3.3243
     7.1947   7.6084   9.0947  13.0790

          k = 0.0662-0.0169 0.8124 (  2286 PWs)   bands (ev):

   -12.8146 -12.7282  -7.7893  -7.7599  -6.7369  -6.7159  -4.1252  -4.1130
    -1.0684  -0.6972  -0.6896  -0.2289   0.5858   0.5950   4.3711   4.6477
     6.6021   6.7572  10.6349  13.7612

          k =-0.1324 0.0339-1.6248 (  2290 PWs)   bands (ev):

    -9.6048  -9.6039  -9.5539  -9.5530  -4.9926  -4.9924  -4.9748  -4.9745
    -3.2590  -3.2574  -3.2436  -3.2434   2.7002   2.7013   3.1894   3.1914
     8.2737   8.2752   8.4636   8.4680

          k =-0.1092 0.6480-0.0138 (  2294 PWs)   bands (ev):

   -13.2619 -13.1870 -11.3170 -11.2980  -4.0035  -3.9651  -1.5573  -0.8421
    -0.1739  -0.1648   0.3428   0.3626   0.8929   1.0514   1.3883   1.3984
    10.2849  10.3551  10.7716  13.2719

          k =-0.0430 0.6311 0.7986 (  2275 PWs)   bands (ev):

   -12.1723 -12.0871 -10.2625 -10.2435  -4.3191  -4.3068  -2.6795  -2.6634
    -2.3648  -2.3342  -0.3238   0.2447   0.2578   0.5099   2.0927   2.2634
     9.2069   9.3550  11.4023  12.0930

          k =-0.2416 0.6819-1.6387 (  2279 PWs)   bands (ev):

    -9.0466  -9.0188  -9.0100  -8.9813  -6.9844  -6.9799  -6.9496  -6.9419
    -1.2730  -1.2655  -1.2580  -1.2552   2.9515   3.1887   3.2342   3.4790
     7.3377   7.3786   7.6639   7.7513

          k =-0.1754 0.6649-0.8262 (  2274 PWs)   bands (ev):

   -12.1517 -12.1088 -10.2737 -10.2313  -4.3240  -4.2991  -2.6839  -2.6624
    -2.3650  -2.3384  -0.1306   0.2489   0.2590   0.2797   1.9807   2.3841
     9.1519   9.4136  11.9699  12.2561

          k =-0.5075 0.0956-0.0392 (  2268 PWs)   bands (ev):

   -13.8821 -13.8683  -8.7280  -8.7120  -7.5370  -7.5237  -2.0298  -1.9457
    -0.7946  -0.7809   2.4711   2.4775   2.6948   2.7094   3.0910   3.2201
     7.3754   7.5083  10.7704  10.9602

          k =-0.4413 0.0787 0.7733 (  2280 PWs)   bands (ev):

   -12.7906 -12.7529  -7.7839  -7.7661  -6.7317  -6.7202  -4.1338  -4.1043
    -0.8457  -0.6989  -0.6876  -0.4922   0.5853   0.5955   4.4152   4.5763
     6.6186   6.7798  11.5126  13.0007

          k =-0.6398 0.1295-1.6640 (  2288 PWs)   bands (ev):

    -9.6050  -9.6039  -9.5539  -9.5528  -4.9924  -4.9921  -4.9750  -4.9746
    -3.2590  -3.2572  -3.2437  -3.2433   2.6989   2.7000   3.1907   3.1931
     8.2742   8.2759   8.4632   8.4679

          k =-0.6167 0.7436-0.0530 (  2300 PWs)   bands (ev):

   -13.2558 -13.1934 -11.3481 -11.2661  -3.9927  -3.9760  -1.5022  -0.9084
    -0.1744  -0.1644   0.3456   0.3572   0.5992   1.3890   1.3915   1.3954
    10.4879  10.5455  10.6230  12.4148

          k =-0.5505 0.7267 0.7594 (  2283 PWs)   bands (ev):

   -12.1444 -12.1157 -10.2898 -10.2155  -4.3278  -4.2980  -2.6798  -2.6630
    -2.3537  -2.3459  -0.0619   0.2039   0.2463   0.2564   1.8338   2.5559
     9.1356   9.4301  12.1123  12.2217

          k =-0.7491 0.7775-1.6778 (  2275 PWs)   bands (ev):

    -9.0463  -9.0189  -9.0093  -8.9821  -6.9856  -6.9784  -6.9482  -6.9436
    -1.2706  -1.2680  -1.2592  -1.2534   2.9654   3.1787   3.2430   3.4617
     7.3675   7.3792   7.6684   7.7230

          k =-0.6829 0.7606-0.8654 (  2272 PWs)   bands (ev):

   -12.1694 -12.0905 -10.2844 -10.2203  -4.3181  -4.3049  -2.6757  -2.6708
    -2.3604  -2.3428  -0.2958   0.2510   0.2567   0.4749   1.8777   2.5030
     9.2243   9.3404  11.5018  12.1735

     the Fermi energy is     4.8199 ev

!    total energy              =     -91.15790053 Ry
     Harris-Foulkes estimate   =     -91.15790053 Ry
     estimated scf accuracy    <          3.9E-09 Ry

     The total energy is the sum of the following terms:

     one-electron contribution =     -44.59984369 Ry
     hartree contribution      =      36.38337225 Ry
     xc contribution           =     -27.96110493 Ry
     ewald contribution        =     -54.98154786 Ry
     smearing contrib. (-TS)   =       0.00122371 Ry

     convergence has been achieved in   8 iterations

     Forces acting on atoms (cartesian axes, Ry/au):

     atom    1 type  1   force =     0.00143682   -0.00176978   -0.00008920
     atom    2 type  1   force =    -0.00268278    0.00130470   -0.00102781
     atom    3 type  1   force =     0.00011425    0.00088195    0.00027124
     atom    4 type  1   force =    -0.00127352    0.00068145    0.00067617
     atom    5 type  1   force =    -0.00041739   -0.00083508   -0.00024589
     atom    6 type  1   force =     0.00165121   -0.00078889   -0.00069554
     atom    7 type  1   force =    -0.00149239    0.00156565    0.00017261
     atom    8 type  1   force =     0.00266380   -0.00104000    0.00093843

     Total force =     0.006091     Total SCF correction =     0.000057


     Computing stress (Cartesian axis) and pressure

          total   stress  (Ry/bohr**3)                   (kbar)     P=        0.55
   0.00000531   0.00000301   0.00000035            0.78        0.44        0.05
   0.00000301   0.00000070  -0.00000115            0.44        0.10       -0.17
   0.00000035  -0.00000115   0.00000517            0.05       -0.17        0.76


     number of scf cycles    =  39
     number of bfgs steps    =  38

     enthalpy old            =     -91.1577847628 Ry
     enthalpy new            =     -91.1578634914 Ry

     CASE: enthalpy_new < enthalpy_old

     new trust radius        =       0.0515112647 bohr
     new conv_thr            =       0.0000000100 Ry

     new unit-cell volume =    549.39430 a.u.^3 (    81.41183 Ang^3 )
     density =      1.95809 g/cm^3

CELL_PARAMETERS (bohr)
  15.502220899   2.643820816  -1.193107307
   1.539804834   7.951241444   0.047373966
  -0.352499134   0.040278028   4.638658826

ATOMIC_POSITIONS (crystal)
C             0.2006537012        0.2057861715        0.4878347753
C             0.6930523196        0.4040860616        0.2116862362
C             0.2007802612        0.3701844871        0.9878453859
C             0.6929641213        0.2395775392       -0.2884691369
C             0.2010034625        0.7054924794        0.9879446420
C             0.6921948546        0.9048007200        0.7114160531
C             0.2011865526        0.8698388119        0.4879927906
C             0.6920187269        0.7403677293        0.2112102538



     Writing output data file ./pp.save/
     NEW-OLD atomic charge density approx. for the potential
     extrapolated charge   32.26590, renormalised to   32.00000

     total cpu time spent up to now is     2275.5 secs

     Self-consistent Calculation

     iteration #  1     ecut=    40.00 Ry     beta= 0.50
     Davidson diagonalization with overlap
     c_bands:  1 eigenvalues not converged
     ethr =  1.00E-06,  avg # of iterations =  6.9

     total cpu time spent up to now is     2305.2 secs

     total energy              =     -91.15599726 Ry
     Harris-Foulkes estimate   =     -90.84415772 Ry
     estimated scf accuracy    <       0.00092771 Ry

     iteration #  2     ecut=    40.00 Ry     beta= 0.50
     Davidson diagonalization with overlap
     ethr =  2.90E-06,  avg # of iterations =  4.5

     total cpu time spent up to now is     2326.6 secs

     total energy              =     -91.15804717 Ry
     Harris-Foulkes estimate   =     -91.15827746 Ry
     estimated scf accuracy    <       0.00071721 Ry

     iteration #  3     ecut=    40.00 Ry     beta= 0.50
     Davidson diagonalization with overlap
     ethr =  2.24E-06,  avg # of iterations =  1.0

     total cpu time spent up to now is     2335.8 secs

     total energy              =     -91.15792683 Ry
     Harris-Foulkes estimate   =     -91.15806905 Ry
     estimated scf accuracy    <       0.00026136 Ry

     iteration #  4     ecut=    40.00 Ry     beta= 0.50
     Davidson diagonalization with overlap
     ethr =  8.17E-07,  avg # of iterations =  2.1

     total cpu time spent up to now is     2348.5 secs

     total energy              =     -91.15795229 Ry
     Harris-Foulkes estimate   =     -91.15795738 Ry
     estimated scf accuracy    <       0.00000864 Ry

     iteration #  5     ecut=    40.00 Ry     beta= 0.50
     Davidson diagonalization with overlap
     ethr =  2.70E-08,  avg # of iterations =  2.5

     total cpu time spent up to now is     2362.9 secs

     total energy              =     -91.15795469 Ry
     Harris-Foulkes estimate   =     -91.15795680 Ry
     estimated scf accuracy    <       0.00000344 Ry

     iteration #  6     ecut=    40.00 Ry     beta= 0.50
     Davidson diagonalization with overlap
     ethr =  1.07E-08,  avg # of iterations =  2.0

     total cpu time spent up to now is     2376.3 secs

     total energy              =     -91.15795534 Ry
     Harris-Foulkes estimate   =     -91.15795532 Ry
     estimated scf accuracy    <       0.00000002 Ry

     iteration #  7     ecut=    40.00 Ry     beta= 0.50
     Davidson diagonalization with overlap
     ethr =  5.60E-11,  avg # of iterations =  2.8

     total cpu time spent up to now is     2393.1 secs

     total energy              =     -91.15795534 Ry
     Harris-Foulkes estimate   =     -91.15795534 Ry
     estimated scf accuracy    <       0.00000001 Ry

     iteration #  8     ecut=    40.00 Ry     beta= 0.50
     Davidson diagonalization with overlap
     ethr =  3.41E-11,  avg # of iterations =  2.0

     total cpu time spent up to now is     2406.4 secs

     End of self-consistent calculation

          k = 0.0000 0.0000 0.0000 (  2281 PWs)   bands (ev):

   -14.0016 -13.9074  -8.8205  -8.7838  -7.6254  -7.5950  -2.4955  -1.5795
    -0.8695  -0.8672   2.3889   2.3931   2.6191   2.6285   2.9226   3.2516
     7.1003   7.5493   8.9778  12.9987

          k = 0.0655-0.0175 0.8124 (  2286 PWs)   bands (ev):

   -12.8915 -12.8111  -7.8727  -7.8420  -6.8161  -6.7946  -4.2051  -4.1941
    -1.1295  -0.7800  -0.7727  -0.3302   0.5073   0.5145   4.2799   4.5753
     6.5173   6.6832  10.5193  13.6796

          k =-0.1310 0.0351-1.6249 (  2290 PWs)   bands (ev):

    -9.6831  -9.6816  -9.6359  -9.6344  -5.0757  -5.0753  -5.0575  -5.0569
    -3.3387  -3.3366  -3.3233  -3.3225   2.6330   2.6353   3.0959   3.0984
     8.1873   8.1879   8.3867   8.3902

          k =-0.1119 0.6497-0.0141 (  2294 PWs)   bands (ev):

   -13.3387 -13.2703 -11.3959 -11.3802  -4.0836  -4.0470  -1.6155  -0.9473
    -0.2544  -0.2459   0.2646   0.2811   0.8276   0.9523   1.3067   1.3159
    10.1882  10.2740  10.6875  13.1990

          k =-0.0464 0.6322 0.7983 (  2275 PWs)   bands (ev):

   -12.2490 -12.1704 -10.3443 -10.3230  -4.3987  -4.3869  -2.7613  -2.7451
    -2.4447  -2.4166  -0.3830   0.1649   0.1754   0.4057   1.9980   2.1972
     9.1243   9.2768  11.2982  12.0189

          k =-0.2429 0.6848-1.6390 (  2279 PWs)   bands (ev):

    -9.1241  -9.0984  -9.0906  -9.0634  -7.0635  -7.0607  -7.0304  -7.0252
    -1.3534  -1.3469  -1.3390  -1.3370   2.8861   3.1163   3.1470   3.3862
     7.2674   7.2928   7.5886   7.6529

          k =-0.1774 0.6672-0.8266 (  2274 PWs)   bands (ev):

   -12.2295 -12.1911 -10.3514 -10.3146  -4.4037  -4.3807  -2.7640  -2.7446
    -2.4452  -2.4199  -0.1923   0.1678   0.1764   0.1807   1.9224   2.2794
     9.0789   9.3244  11.8840  12.1679

          k =-0.5028 0.0976-0.0391 (  2268 PWs)   bands (ev):

   -13.9621 -13.9479  -8.8103  -8.7949  -7.6158  -7.6034  -2.1119  -2.0222
    -0.8745  -0.8620   2.3883   2.3940   2.6199   2.6287   3.0101   3.1359
     7.2908   7.4211  10.6028  10.8068

          k =-0.4373 0.0801 0.7734 (  2280 PWs)   bands (ev):

   -12.8694 -12.8338  -7.8666  -7.8486  -6.8105  -6.7993  -4.2132  -4.1859
    -0.9189  -0.7820  -0.7704  -0.5781   0.5065   0.5153   4.3334   4.4983
     6.5376   6.6947  11.3686  12.8365

          k =-0.6338 0.1327-1.6639 (  2288 PWs)   bands (ev):

    -9.6834  -9.6818  -9.6356  -9.6341  -5.0755  -5.0752  -5.0575  -5.0571
    -3.3387  -3.3365  -3.3234  -3.3224   2.6292   2.6315   3.1002   3.1029
     8.1870   8.1878   8.3870   8.3912

          k =-0.6147 0.7473-0.0532 (  2300 PWs)   bands (ev):

   -13.3346 -13.2746 -11.4261 -11.3493  -4.0715  -4.0593  -1.5772  -0.9933
    -0.2547  -0.2457   0.2678   0.2769   0.5293   1.2912   1.3098   1.3130
    10.3427  10.4667  10.5228  12.2934

          k =-0.5492 0.7298 0.7592 (  2283 PWs)   bands (ev):

   -12.2244 -12.1957 -10.3675 -10.2993  -4.4062  -4.3794  -2.7601  -2.7461
    -2.4351  -2.4268  -0.1446   0.1278   0.1658   0.1746   1.7726   2.4518
     9.0679   9.3363  12.0034  12.1374

          k =-0.7457 0.7824-1.6781 (  2275 PWs)   bands (ev):

    -9.1242  -9.0983  -9.0895  -9.0645  -7.0642  -7.0594  -7.0295  -7.0267
    -1.3517  -1.3484  -1.3405  -1.3352   2.8983   3.1056   3.1579   3.3696
     7.2947   7.2989   7.5894   7.6240

          k =-0.6802 0.7648-0.8656 (  2272 PWs)   bands (ev):

   -12.2472 -12.1729 -10.3635 -10.3022  -4.3980  -4.3862  -2.7566  -2.7521
    -2.4399  -2.4250  -0.3637   0.1698   0.1749   0.3813   1.8027   2.4165
     9.1470   9.2556  11.3680  12.1022

     the Fermi energy is     4.7473 ev

!    total energy              =     -91.15795534 Ry
     Harris-Foulkes estimate   =     -91.15795534 Ry
     estimated scf accuracy    <          4.2E-10 Ry

     The total energy is the sum of the following terms:

     one-electron contribution =     -46.13078201 Ry
     hartree contribution      =      37.05223516 Ry
     xc contribution           =     -27.95929144 Ry
     ewald contribution        =     -54.12132419 Ry
     smearing contrib. (-TS)   =       0.00120715 Ry

     convergence has been achieved in   8 iterations

     Forces acting on atoms (cartesian axes, Ry/au):

     atom    1 type  1   force =     0.00105734   -0.00185508   -0.00020366
     atom    2 type  1   force =    -0.00168293    0.00166069   -0.00063099
     atom    3 type  1   force =    -0.00028610    0.00083929    0.00023803
     atom    4 type  1   force =    -0.00046705    0.00058576    0.00063832
     atom    5 type  1   force =     0.00021178   -0.00099907   -0.00013660
     atom    6 type  1   force =     0.00046353   -0.00040313   -0.00073302
     atom    7 type  1   force =    -0.00137389    0.00192076    0.00020615
     atom    8 type  1   force =     0.00207732   -0.00174922    0.00062176

     Total force =     0.005269     Total SCF correction =     0.000014


     Computing stress (Cartesian axis) and pressure

          total   stress  (Ry/bohr**3)                   (kbar)     P=       -0.14
   0.00000003   0.00000006   0.00000030            0.00        0.01        0.04
   0.00000006  -0.00000860  -0.00000025            0.01       -1.26       -0.04
   0.00000030  -0.00000025   0.00000573            0.04       -0.04        0.84


     number of scf cycles    =  40
     number of bfgs steps    =  39

     enthalpy old            =     -91.1578634914 Ry
     enthalpy new            =     -91.1579179928 Ry

     CASE: enthalpy_new < enthalpy_old

     new trust radius        =       0.0192439852 bohr
     new conv_thr            =       0.0000000100 Ry

     new unit-cell volume =    550.82076 a.u.^3 (    81.62321 Ang^3 )
     density =      1.95302 g/cm^3

CELL_PARAMETERS (bohr)
  15.562930527   2.682500254  -1.191593022
   1.560550506   7.947263900   0.048887970
  -0.353088411   0.040422337   4.638767831

ATOMIC_POSITIONS (crystal)
C             0.1999245149        0.2054044634        0.4874582377
C             0.6935977694        0.4046345764        0.2119327293
C             0.1999298776        0.3699158159        0.9874268764
C             0.6936352346        0.2400322993       -0.2881005792
C             0.1999907070        0.7053849273        0.9874331500
C             0.6933996561        0.9047099988        0.7119867995
C             0.2001007904        0.8698176094        0.4874505361
C             0.6932754500        0.7402343095        0.2118732502



     Writing output data file ./pp.save/
     NEW-OLD atomic charge density approx. for the potential
     extrapolated charge   32.08287, renormalised to   32.00000

     total cpu time spent up to now is     2406.9 secs

     Self-consistent Calculation

     iteration #  1     ecut=    40.00 Ry     beta= 0.50
     Davidson diagonalization with overlap
