
     Program PWSCF v.6.5 starts on  7Jul2022 at  5:20:41 

     This program is part of the open-source Quantum ESPRESSO suite
     for quantum simulation of materials; please cite
         "P. Giannozzi et al., J. Phys.:Condens. Matter 21 395502 (2009);
         "P. Giannozzi et al., J. Phys.:Condens. Matter 29 465901 (2017);
          URL http://www.quantum-espresso.org", 
     in publications or presentations arising from this work. More details at
     http://www.quantum-espresso.org/quote

     Parallel version (MPI), running on    96 processors

     MPI processes distributed on     2 nodes
     R & G space division:  proc/nbgrp/npool/nimage =      96
     Waiting for input...
     Reading input from standard input
     Message from routine read_cards :
     DEPRECATED: no units specified in CELL_PARAMETERS card

     Current dimensions of program PWSCF are:
     Max number of different atomic species (ntypx) = 10
     Max number of k-points (npk) =  40000
     Max angular momentum in pseudopotentials (lmaxx) =  3

     Subspace diagonalization in iterative solution of the eigenvalue problem:
     one sub-group per band group will be used
     scalapack distributed-memory algorithm (size of sub-group:  9*  9 procs)

 
     Parallelization info
     --------------------
     sticks:   dense  smooth     PW     G-vecs:    dense   smooth      PW
     Min          15      15      4                  197      197      34
     Max          16      16      6                  202      202      37
     Sum        1521    1521    481                19115    19115    3395
 


     bravais-lattice index     =            0
     lattice parameter (alat)  =      12.9595  a.u.
     unit-cell volume          =     558.2005 (a.u.)^3
     number of atoms/cell      =            8
     number of atomic types    =            1
     number of electrons       =        32.00
     number of Kohn-Sham states=           20
     kinetic-energy cutoff     =      40.0000  Ry
     charge density cutoff     =     160.0000  Ry
     convergence threshold     =      1.0E-06
     mixing beta               =       0.5000
     number of iterations used =            8  plain     mixing
     Exchange-correlation=  SLA  PW   PBE  PBE
                           (   1   4   3   4   0   0   0)
     nstep                     =          250


     celldm(1)=  12.959462  celldm(2)=   0.000000  celldm(3)=   0.000000
     celldm(4)=   0.000000  celldm(5)=   0.000000  celldm(6)=   0.000000

     crystal axes: (cart. coord. in units of alat)
               a(1) = (   0.999972  -0.007477   0.000015 )  
               a(2) = (   0.010764   0.709713   0.000154 )  
               a(3) = (   0.000008  -0.000093   0.361334 )  

     reciprocal axes: (cart. coord. in units 2 pi/alat)
               b(1) = (  0.999915 -0.015166 -0.000025 )  
               b(2) = (  0.010535  1.408860  0.000361 )  
               b(3) = ( -0.000047 -0.000601  2.767519 )  


     PseudoPot. # 1 for C  read from file:
     ./C.pbe-van_bm.upf
     MD5 check sum: 1a69bf6b8db32088f5b2163dbdb77a27
     Pseudo is Ultrasoft, Zval =  4.0
     Generated by new atomic code, or converted to UPF format
     Using radial grid of  721 points,  4 beta functions with: 
                l(1) =   0
                l(2) =   0
                l(3) =   1
                l(4) =   1
     Q(r) pseudized with  8 coefficients,  rinner =    0.800   0.800   0.800


     atomic species   valence    mass     pseudopotential
        C              4.00    12.00000     C ( 1.00)

     No symmetry found



   Cartesian axes

     site n.     atom                  positions (alat units)
         1           C   tau(   1) = (   0.1607306   0.4984359   0.2251736  )
         2           C   tau(   2) = (   0.4936649   0.1380753   0.2236307  )
         3           C   tau(   3) = (   0.5894400  -0.0340105   0.2149949  )
         4           C   tau(   4) = (   0.1656891   0.3139589   0.2169349  )
         5           C   tau(   5) = (   0.5951417   0.3069403   0.2313139  )
         6           C   tau(   6) = (   0.2615924   0.1419234   0.2245674  )
         7           C   tau(   7) = (   0.6053128   0.4912615   0.2231937  )
         8           C   tau(   8) = (   0.1710329   0.6827427   0.2332799  )

     number of k points=    12  Marzari-Vanderbilt smearing, width (Ry)=  0.0200
                       cart. coord. in units 2pi/alat
        k(    1) = (   0.0000000   0.0000000   0.0000000), wk =   0.1250000
        k(    2) = (  -0.0000118  -0.0001503   0.6918798), wk =   0.2500000
        k(    3) = (   0.0000236   0.0003005  -1.3837595), wk =   0.1250000
        k(    4) = (  -0.0052673  -0.7044301  -0.0001804), wk =   0.1250000
        k(    5) = (  -0.0052791  -0.7045804   0.6916994), wk =   0.2500000
        k(    6) = (  -0.0052437  -0.7041296  -1.3839399), wk =   0.1250000
        k(    7) = (  -0.4999573   0.0075829   0.0000126), wk =   0.1250000
        k(    8) = (  -0.4999691   0.0074327   0.6918924), wk =   0.2500000
        k(    9) = (  -0.4999337   0.0078835  -1.3837469), wk =   0.1250000
        k(   10) = (  -0.5052246  -0.6968472  -0.0001678), wk =   0.1250000
        k(   11) = (  -0.5052364  -0.6969975   0.6917120), wk =   0.2500000
        k(   12) = (  -0.5052010  -0.6965466  -1.3839273), wk =   0.1250000

     Dense  grid:    19115 G-vectors     FFT dimensions: (  54,  40,  20)

     Estimated max dynamical RAM per process >       2.35 MB

     Estimated total dynamical RAM >     225.93 MB

     Initial potential from superposition of free atoms

     starting charge   31.99968, renormalised to   32.00000
     Starting wfcs are   32 randomized atomic wfcs

     total cpu time spent up to now is        0.6 secs

     Self-consistent Calculation

     iteration #  1     ecut=    40.00 Ry     beta= 0.50
     Davidson diagonalization with overlap
     ethr =  1.00E-02,  avg # of iterations =  2.0

     total cpu time spent up to now is        1.3 secs

     total energy              =     -90.22901683 Ry
     Harris-Foulkes estimate   =     -90.70335350 Ry
     estimated scf accuracy    <       0.91422976 Ry

     iteration #  2     ecut=    40.00 Ry     beta= 0.50
     Davidson diagonalization with overlap
     ethr =  2.86E-03,  avg # of iterations =  2.0

     total cpu time spent up to now is        1.9 secs

     total energy              =     -90.28778909 Ry
     Harris-Foulkes estimate   =     -90.33792494 Ry
     estimated scf accuracy    <       0.09762609 Ry

     iteration #  3     ecut=    40.00 Ry     beta= 0.50
     Davidson diagonalization with overlap
     ethr =  3.05E-04,  avg # of iterations =  2.8

     total cpu time spent up to now is        2.6 secs

     total energy              =     -90.30054157 Ry
     Harris-Foulkes estimate   =     -90.31542889 Ry
     estimated scf accuracy    <       0.03334660 Ry

     iteration #  4     ecut=    40.00 Ry     beta= 0.50
     Davidson diagonalization with overlap
     ethr =  1.04E-04,  avg # of iterations =  2.6

     total cpu time spent up to now is        3.2 secs

     total energy              =     -90.30698501 Ry
     Harris-Foulkes estimate   =     -90.30807172 Ry
     estimated scf accuracy    <       0.00301819 Ry

     iteration #  5     ecut=    40.00 Ry     beta= 0.50
     Davidson diagonalization with overlap
     ethr =  9.43E-06,  avg # of iterations =  2.3

     total cpu time spent up to now is        3.8 secs

     total energy              =     -90.30765175 Ry
     Harris-Foulkes estimate   =     -90.30775138 Ry
     estimated scf accuracy    <       0.00046578 Ry

     iteration #  6     ecut=    40.00 Ry     beta= 0.50
     Davidson diagonalization with overlap
     ethr =  1.46E-06,  avg # of iterations =  2.2

     total cpu time spent up to now is        4.4 secs

     total energy              =     -90.30770177 Ry
     Harris-Foulkes estimate   =     -90.30771332 Ry
     estimated scf accuracy    <       0.00003560 Ry

     iteration #  7     ecut=    40.00 Ry     beta= 0.50
     Davidson diagonalization with overlap
     ethr =  1.11E-07,  avg # of iterations =  2.7

     total cpu time spent up to now is        5.1 secs

     total energy              =     -90.30770171 Ry
     Harris-Foulkes estimate   =     -90.30773531 Ry
     estimated scf accuracy    <       0.00015300 Ry

     iteration #  8     ecut=    40.00 Ry     beta= 0.50
     Davidson diagonalization with overlap
     ethr =  1.11E-07,  avg # of iterations =  2.0

     total cpu time spent up to now is        5.6 secs

     total energy              =     -90.30771784 Ry
     Harris-Foulkes estimate   =     -90.30771834 Ry
     estimated scf accuracy    <       0.00000171 Ry

     iteration #  9     ecut=    40.00 Ry     beta= 0.50
     Davidson diagonalization with overlap
     ethr =  5.35E-09,  avg # of iterations =  2.5

     total cpu time spent up to now is        6.3 secs

     End of self-consistent calculation

          k = 0.0000 0.0000 0.0000 (  2395 PWs)   bands (ev):

   -13.8912 -12.5057 -10.1484  -9.4157  -9.0197  -8.6792  -4.4769  -3.8950
    -2.7739  -0.0953   0.2952   2.6235   3.4219   3.6301   4.9863   7.0352
     7.6106   8.0711   8.2855   8.5423

          k =-0.0000-0.0002 0.6919 (  2372 PWs)   bands (ev):

   -13.0262 -11.6765  -9.4247  -8.7338  -8.3917  -8.0344  -3.8622  -3.5961
    -2.5318  -1.0827  -0.0294   0.6361   0.9476   3.5458   3.9771   4.7479
     5.1264   5.5406   6.0506   8.3318

          k = 0.0000 0.0003-1.3838 (  2382 PWs)   bands (ev):

   -11.7767 -10.4902  -8.4624  -7.8593  -7.6020  -7.2199  -4.2024  -3.2825
    -3.1117  -2.9636  -2.2603   0.7793   1.5440   1.6743   2.0433   2.5397
     2.9721   5.3046   6.2693   9.3136

          k =-0.0053-0.7044-0.0002 (  2382 PWs)   bands (ev):

   -13.3921 -12.0404 -11.5621 -11.5116  -6.7831  -6.0191  -5.6172  -4.1383
    -4.0215  -0.3703   1.2219   2.8301   3.5623   4.0232   4.3354   4.4734
     5.1151   8.2189   9.7876  11.6140

          k =-0.0053-0.7046 0.6917 (  2386 PWs)   bands (ev):

   -12.5569 -11.2176 -10.7903 -10.7148  -6.2613  -5.6359  -5.1201  -3.7065
    -3.5188  -0.1921   0.3350   0.8619   1.0353   1.6233   1.9066   3.5129
     4.7892   8.0990   8.8265  10.0789

          k =-0.0052-0.7041-1.3839 (  2396 PWs)   bands (ev):

   -11.3784 -10.0554  -9.7353  -9.5967  -5.6629  -5.2143  -4.5504  -3.5041
    -2.9514  -2.8939  -2.1642  -1.7561  -1.2250   1.4152   2.5534   4.3611
     5.6424   5.7526   8.7478   8.7882

          k =-0.5000 0.0076 0.0000 (  2378 PWs)   bands (ev):

   -13.8774 -12.5384 -10.1121  -9.4008  -9.0444  -8.7003  -4.4006  -3.8769
    -2.7825  -0.2489   0.2913   2.6283   3.4194   3.9492   4.5511   7.0051
     7.0440   8.2885   8.4093   8.8245

          k =-0.5000 0.0074 0.6919 (  2382 PWs)   bands (ev):

   -13.0141 -11.7053  -9.3928  -8.7211  -8.4135  -8.0526  -3.8034  -3.5827
    -2.5385  -1.0615  -0.0936   0.5399   0.9578   3.5841   4.1837   4.5644
     5.1903   5.5398   5.8589   7.8243

          k =-0.4999 0.0079-1.3837 (  2400 PWs)   bands (ev):

   -11.7680 -10.5113  -8.4381  -7.8502  -7.6187  -7.2328  -4.1816  -3.2743
    -3.0773  -3.0024  -2.2637   0.8205   1.3763   1.7832   2.0760   2.5000
     2.9381   5.4977   6.0352   9.0099

          k =-0.5052-0.6968-0.0002 (  2398 PWs)   bands (ev):

   -13.3854 -12.0075 -11.5797 -11.5536  -6.7478  -6.0360  -5.5815  -4.1647
    -3.9839  -0.0182   0.7336   2.2425   3.5640   4.3433   4.4523   4.6992
     5.1109   8.4895   9.4218  11.6117

          k =-0.5052-0.6970 0.6917 (  2382 PWs)   bands (ev):

   -12.5510 -11.1882 -10.8054 -10.7521  -6.2343  -5.6496  -5.0925  -3.7271
    -3.4879  -0.1812   0.6093   0.9179   0.9258   1.5850   1.5942   3.0486
     5.3330   8.1815   9.0630   9.8028

          k =-0.5052-0.6965-1.3839 (  2384 PWs)   bands (ev):

   -11.3741 -10.0330  -9.7458  -9.6249  -5.6462  -5.2236  -4.5311  -3.5042
    -2.9552  -2.8729  -2.1212  -1.8057  -1.2509   1.6395   2.2770   4.0603
     5.7556   6.0905   8.6191   8.8325

     the Fermi energy is     4.8465 ev

!    total energy              =     -90.30771809 Ry
     Harris-Foulkes estimate   =     -90.30771822 Ry
     estimated scf accuracy    <       0.00000036 Ry

     The total energy is the sum of the following terms:

     one-electron contribution =     -52.16644065 Ry
     hartree contribution      =      39.76620615 Ry
     xc contribution           =     -27.64760307 Ry
     ewald contribution        =     -50.26052384 Ry
     smearing contrib. (-TS)   =       0.00064333 Ry

     convergence has been achieved in   9 iterations

     Forces acting on atoms (cartesian axes, Ry/au):

     atom    1 type  1   force =     0.02529059   -0.00026115   -0.00004029
     atom    2 type  1   force =    -0.05420536    0.00137275   -0.00003552
     atom    3 type  1   force =     0.02282688   -0.02189842    0.00941095
     atom    4 type  1   force =    -0.02290126    0.02257043    0.00937249
     atom    5 type  1   force =     0.02343494    0.02142917   -0.00932475
     atom    6 type  1   force =     0.05445619   -0.00121091    0.00001799
     atom    7 type  1   force =    -0.02527361   -0.00004088    0.00002137
     atom    8 type  1   force =    -0.02362838   -0.02196099   -0.00942224

     Total force =     0.107801     Total SCF correction =     0.001081


     Computing stress (Cartesian axis) and pressure

          total   stress  (Ry/bohr**3)                   (kbar)     P=      160.59
  -0.00018090   0.00002247   0.00000099          -26.61        3.30        0.15
   0.00002247   0.00139963  -0.00000054            3.30      205.89       -0.08
   0.00000099  -0.00000054   0.00205618            0.15       -0.08      302.47


     BFGS Geometry Optimization

     number of scf cycles    =   1
     number of bfgs steps    =   0

     enthalpy new            =     -90.3076801429 Ry

     new trust radius        =       0.2428913317 bohr
     new conv_thr            =       0.0000010000 Ry

     new unit-cell volume =    604.68013 a.u.^3 (    89.60435 Ang^3 )
     density =      1.77906 g/cm^3

CELL_PARAMETERS (bohr)
  12.900415844  -0.093011812   0.000531305
   0.144034804   9.519390042   0.001981267
   0.000214398  -0.001305562   4.923403943

ATOMIC_POSITIONS (crystal)
C             0.1551036544        0.7039931671        0.6228563164
C             0.4873390654        0.1999151718        0.6187885486
C             0.5916868646       -0.0439908228        0.5970056595
C             0.1591145737        0.4465833411        0.6021755512
C             0.5922131126        0.4411374171        0.6379606012
C             0.2636150989        0.2026996254        0.6214007000
C             0.5958550093        0.6985510122        0.6173736569
C             0.1588606211        0.9613680880        0.6431769663



     Writing output data file ./pp.save/
     NEW-OLD atomic charge density approx. for the potential
     extrapolated charge   34.45970, renormalised to   32.00000

     total cpu time spent up to now is        6.5 secs

     Self-consistent Calculation

     iteration #  1     ecut=    40.00 Ry     beta= 0.50
     Davidson diagonalization with overlap
     ethr =  1.00E-06,  avg # of iterations = 11.1

     total cpu time spent up to now is        8.9 secs

     total energy              =     -89.51163276 Ry
     Harris-Foulkes estimate   =     -87.35868745 Ry
     estimated scf accuracy    <       0.77944442 Ry

     iteration #  2     ecut=    40.00 Ry     beta= 0.50
     Davidson diagonalization with overlap
     ethr =  2.44E-03,  avg # of iterations =  4.5

     total cpu time spent up to now is        9.9 secs

     total energy              =     -90.21886200 Ry
     Harris-Foulkes estimate   =     -90.90761645 Ry
     estimated scf accuracy    <       2.31835051 Ry

     iteration #  3     ecut=    40.00 Ry     beta= 0.50
     Davidson diagonalization with overlap
     ethr =  2.44E-03,  avg # of iterations =  2.3

     total cpu time spent up to now is       10.6 secs

     total energy              =     -90.37510971 Ry
     Harris-Foulkes estimate   =     -90.42266083 Ry
     estimated scf accuracy    <       0.23411039 Ry

     iteration #  4     ecut=    40.00 Ry     beta= 0.50
     Davidson diagonalization with overlap
     ethr =  7.32E-04,  avg # of iterations =  1.0

     total cpu time spent up to now is       11.0 secs

     total energy              =     -90.35877420 Ry
     Harris-Foulkes estimate   =     -90.38216421 Ry
     estimated scf accuracy    <       0.11281302 Ry

     iteration #  5     ecut=    40.00 Ry     beta= 0.50
     Davidson diagonalization with overlap
     ethr =  3.53E-04,  avg # of iterations =  1.6

     total cpu time spent up to now is       11.5 secs

     total energy              =     -90.35948597 Ry
     Harris-Foulkes estimate   =     -90.36372744 Ry
     estimated scf accuracy    <       0.03954288 Ry

     iteration #  6     ecut=    40.00 Ry     beta= 0.50
     Davidson diagonalization with overlap
     ethr =  1.24E-04,  avg # of iterations =  2.6

     total cpu time spent up to now is       12.2 secs

     total energy              =     -90.35698309 Ry
     Harris-Foulkes estimate   =     -90.36084379 Ry
     estimated scf accuracy    <       0.02501786 Ry

     iteration #  7     ecut=    40.00 Ry     beta= 0.50
     Davidson diagonalization with overlap
     ethr =  7.82E-05,  avg # of iterations =  1.8

     total cpu time spent up to now is       12.7 secs

     total energy              =     -90.35405886 Ry
     Harris-Foulkes estimate   =     -90.35775835 Ry
     estimated scf accuracy    <       0.01242762 Ry

     iteration #  8     ecut=    40.00 Ry     beta= 0.50
     Davidson diagonalization with overlap
     ethr =  3.88E-05,  avg # of iterations =  2.4

     total cpu time spent up to now is       13.3 secs

     total energy              =     -90.35451069 Ry
     Harris-Foulkes estimate   =     -90.35521637 Ry
     estimated scf accuracy    <       0.00166239 Ry

     iteration #  9     ecut=    40.00 Ry     beta= 0.50
     Davidson diagonalization with overlap
     ethr =  5.19E-06,  avg # of iterations =  4.9

     total cpu time spent up to now is       14.4 secs

     total energy              =     -90.35489840 Ry
     Harris-Foulkes estimate   =     -90.35491022 Ry
     estimated scf accuracy    <       0.00005261 Ry

     iteration # 10     ecut=    40.00 Ry     beta= 0.50
     Davidson diagonalization with overlap
     ethr =  1.64E-07,  avg # of iterations =  2.4

     total cpu time spent up to now is       15.0 secs

     total energy              =     -90.35490159 Ry
     Harris-Foulkes estimate   =     -90.35490807 Ry
     estimated scf accuracy    <       0.00002156 Ry

     iteration # 11     ecut=    40.00 Ry     beta= 0.50
     Davidson diagonalization with overlap
     ethr =  6.74E-08,  avg # of iterations =  2.2

     total cpu time spent up to now is       15.7 secs

     total energy              =     -90.35490350 Ry
     Harris-Foulkes estimate   =     -90.35490426 Ry
     estimated scf accuracy    <       0.00000284 Ry

     iteration # 12     ecut=    40.00 Ry     beta= 0.50
     Davidson diagonalization with overlap
     ethr =  8.86E-09,  avg # of iterations =  2.8

     total cpu time spent up to now is       16.4 secs

     End of self-consistent calculation

          k = 0.0000 0.0000 0.0000 (  2395 PWs)   bands (ev):

   -14.0623 -12.5528 -10.6242  -9.7714  -9.1434  -9.0144  -4.9126  -4.3105
    -3.0118  -0.7623   0.0981   1.4960   2.4299   2.8123   4.2381   5.3934
     6.8315   6.9507   7.1071   7.3668

          k =-0.0000-0.0001 0.6581 (  2372 PWs)   bands (ev):

   -13.3672 -11.8897 -10.0454  -9.2288  -8.6464  -8.5083  -4.4567  -4.0736
    -2.8210  -1.6411  -0.4664  -0.1631   0.6157   2.5176   3.1353   3.9968
     4.1987   4.9223   5.0982   7.6682

          k = 0.0001 0.0003-1.3161 (  2382 PWs)   bands (ev):

   -12.4320 -11.0058  -9.3146  -8.5642  -8.0491  -7.8977  -4.2326  -3.9296
    -3.8239  -2.8729  -2.5946   0.2478   0.5747   1.1676   1.6378   2.1694
     2.7861   4.1823   5.2463   8.4727

          k =-0.0049-0.6806-0.0002 (  2382 PWs)   bands (ev):

   -13.5999 -12.3272 -11.7852 -11.4722  -7.4363  -6.4084  -5.9813  -4.4403
    -4.3428  -0.8849   0.7961   2.3331   2.6155   3.0880   3.1398   3.2577
     4.2360   7.0393   8.7785   9.6157

          k =-0.0049-0.6807 0.6579 (  2386 PWs)   bands (ev):

   -12.9296 -11.6691 -11.1542 -10.8545  -7.0144  -6.1105  -5.5827  -4.0830
    -3.9928  -0.8298  -0.2892   0.1463   0.4071   1.2906   1.3232   3.1819
     3.7627   6.7707   7.5656   9.0705

          k =-0.0049-0.6803-1.3163 (  2396 PWs)   bands (ev):

   -12.0435 -10.7999 -10.3281 -10.0587  -6.5346  -5.7883  -5.1341  -3.7452
    -3.6672  -3.2134  -2.3429  -1.8931  -1.0696   0.5709   1.8288   3.8293
     4.5577   4.7398   7.9886   8.0041

          k =-0.5022 0.0076 0.0000 (  2378 PWs)   bands (ev):

   -14.0482 -12.5908 -10.5867  -9.7545  -9.1669  -9.0390  -4.8453  -4.2927
    -3.0189  -0.4807  -0.3634   1.5021   2.4215   3.1606   3.7676   5.4021
     6.3889   6.8847   7.0170   7.6397

          k =-0.5023 0.0075 0.6581 (  2382 PWs)   bands (ev):

   -13.3548 -11.9234 -10.0121  -9.2141  -8.6670  -8.5294  -4.4049  -4.0600
    -2.8268  -1.6197  -0.5378   0.1749   0.1770   2.5567   3.3777   3.7855
     4.2737   4.8930   4.9019   7.1025

          k =-0.5022 0.0079-1.3161 (  2400 PWs)   bands (ev):

   -12.4226 -11.0318  -9.2882  -8.5530  -8.0651  -7.9137  -4.2087  -3.8975
    -3.8145  -2.9236  -2.5977   0.2930   0.8302   0.8364   1.6782   2.1202
     2.7524   4.4028   4.9705   8.1075

          k =-0.5071-0.6730-0.0002 (  2398 PWs)   bands (ev):

   -13.5934 -12.2919 -11.8307 -11.4931  -7.3990  -6.4250  -5.9484  -4.4055
    -4.3670  -0.5197   0.2859   1.9534   2.3357   3.0989   3.2328   3.8074
     4.2301   7.2840   8.4434   9.6072

          k =-0.5072-0.6732 0.6579 (  2382 PWs)   bands (ev):

   -12.9239 -11.6374 -11.1945 -10.8724  -6.9846  -6.1242  -5.5564  -4.0549
    -4.0119  -0.8194   0.0051   0.2042   0.3055   0.9632   1.2451   2.6627
     4.3100   6.8455   7.7856   8.7946

          k =-0.5071-0.6727-1.3163 (  2384 PWs)   bands (ev):

   -12.0392 -10.7746 -10.3598 -10.0719  -6.5141  -5.7983  -5.1146  -3.7514
    -3.6478  -3.2101  -2.2929  -1.9518  -1.1043   0.8137   1.5229   3.4639
     4.8582   4.9236   7.8808   8.0310

     the Fermi energy is     4.0021 ev

!    total energy              =     -90.35490393 Ry
     Harris-Foulkes estimate   =     -90.35490410 Ry
     estimated scf accuracy    <       0.00000023 Ry

     The total energy is the sum of the following terms:

     one-electron contribution =     -50.13155660 Ry
     hartree contribution      =      37.83278855 Ry
     xc contribution           =     -27.16548766 Ry
     ewald contribution        =     -50.88968932 Ry
     smearing contrib. (-TS)   =      -0.00095890 Ry

     convergence has been achieved in  12 iterations

     Forces acting on atoms (cartesian axes, Ry/au):

     atom    1 type  1   force =     0.02846479   -0.00093992   -0.00016754
     atom    2 type  1   force =     0.02763811   -0.00071165   -0.00027066
     atom    3 type  1   force =    -0.01047791   -0.00712913    0.01345716
     atom    4 type  1   force =     0.01082998    0.00611683    0.01320757
     atom    5 type  1   force =    -0.01064873    0.00725691   -0.01312793
     atom    6 type  1   force =    -0.02793006    0.00073373    0.00022485
     atom    7 type  1   force =    -0.02850410    0.00138270    0.00007519
     atom    8 type  1   force =     0.01062792   -0.00670947   -0.01339864

     Total force =     0.067212     Total SCF correction =     0.001027


     Computing stress (Cartesian axis) and pressure

          total   stress  (Ry/bohr**3)                   (kbar)     P=      -40.75
  -0.00043981  -0.00001431   0.00000215          -64.70       -2.11        0.32
  -0.00001431  -0.00147206  -0.00000045           -2.11     -216.55       -0.07
   0.00000215  -0.00000045   0.00108083            0.32       -0.07      158.99


     number of scf cycles    =   2
     number of bfgs steps    =   1

     enthalpy old            =     -90.3076801429 Ry
     enthalpy new            =     -90.3548628268 Ry

     CASE: enthalpy_new < enthalpy_old

     new trust radius        =       0.2794239941 bohr
     new conv_thr            =       0.0000002850 Ry

     new unit-cell volume =    618.63327 a.u.^3 (    91.67199 Ang^3 )
     density =      1.73894 g/cm^3

CELL_PARAMETERS (bohr)
  12.706866584  -0.091684123   0.001502599
   0.141667306   9.355833770   0.001926962
   0.000548646  -0.001380989   5.203131986

ATOMIC_POSITIONS (crystal)
C             0.1585213711        0.7039060140        0.6228128465
C             0.4869408170        0.1999224921        0.6187222721
C             0.5919693262       -0.0462594294        0.6013080816
C             0.1588567994        0.4487821263        0.6064141520
C             0.5924628546        0.4433937605        0.6337444770
C             0.2640022333        0.2027054524        0.6214542205
C             0.5924347137        0.6986687286        0.6173935549
C             0.1585998847        0.9591378554        0.6388883955



     Writing output data file ./pp.save/
     NEW-OLD atomic charge density approx. for the potential
     extrapolated charge   32.72175, renormalised to   32.00000

     total cpu time spent up to now is       16.5 secs

     Self-consistent Calculation

     iteration #  1     ecut=    40.00 Ry     beta= 0.50
     Davidson diagonalization with overlap
     ethr =  1.00E-06,  avg # of iterations =  8.2

     total cpu time spent up to now is       18.6 secs

     total energy              =     -90.35052126 Ry
     Harris-Foulkes estimate   =     -89.45580252 Ry
     estimated scf accuracy    <       0.03252796 Ry

     iteration #  2     ecut=    40.00 Ry     beta= 0.50
     Davidson diagonalization with overlap
     ethr =  1.02E-04,  avg # of iterations =  4.3

     total cpu time spent up to now is       19.8 secs

     total energy              =     -90.39042891 Ry
     Harris-Foulkes estimate   =     -90.42506757 Ry
     estimated scf accuracy    <       0.12789704 Ry

     iteration #  3     ecut=    40.00 Ry     beta= 0.50
     Davidson diagonalization with overlap
     ethr =  1.02E-04,  avg # of iterations =  2.5

     total cpu time spent up to now is       20.6 secs

     total energy              =     -90.39586155 Ry
     Harris-Foulkes estimate   =     -90.39871472 Ry
     estimated scf accuracy    <       0.02311639 Ry

     iteration #  4     ecut=    40.00 Ry     beta= 0.50
     Davidson diagonalization with overlap
     ethr =  7.22E-05,  avg # of iterations =  1.0

     total cpu time spent up to now is       21.1 secs

     total energy              =     -90.39204193 Ry
     Harris-Foulkes estimate   =     -90.39614177 Ry
     estimated scf accuracy    <       0.01522943 Ry

     iteration #  5     ecut=    40.00 Ry     beta= 0.50
     Davidson diagonalization with overlap
     ethr =  4.76E-05,  avg # of iterations =  1.9

     total cpu time spent up to now is       21.8 secs

     total energy              =     -90.39048449 Ry
     Harris-Foulkes estimate   =     -90.39353716 Ry
     estimated scf accuracy    <       0.01064682 Ry

     iteration #  6     ecut=    40.00 Ry     beta= 0.50
     Davidson diagonalization with overlap
     ethr =  3.33E-05,  avg # of iterations =  2.2

     total cpu time spent up to now is       22.5 secs

     total energy              =     -90.39209753 Ry
     Harris-Foulkes estimate   =     -90.39218382 Ry
     estimated scf accuracy    <       0.00047205 Ry

     iteration #  7     ecut=    40.00 Ry     beta= 0.50
     Davidson diagonalization with overlap
     ethr =  1.48E-06,  avg # of iterations =  3.5

     total cpu time spent up to now is       23.5 secs

     total energy              =     -90.39208322 Ry
     Harris-Foulkes estimate   =     -90.39215344 Ry
     estimated scf accuracy    <       0.00018368 Ry

     iteration #  8     ecut=    40.00 Ry     beta= 0.50
     Davidson diagonalization with overlap
     ethr =  5.74E-07,  avg # of iterations =  2.2

     total cpu time spent up to now is       24.2 secs

     total energy              =     -90.39210730 Ry
     Harris-Foulkes estimate   =     -90.39210914 Ry
     estimated scf accuracy    <       0.00000409 Ry

     iteration #  9     ecut=    40.00 Ry     beta= 0.50
     Davidson diagonalization with overlap
     ethr =  1.28E-08,  avg # of iterations =  3.2

     total cpu time spent up to now is       25.3 secs

     total energy              =     -90.39210945 Ry
     Harris-Foulkes estimate   =     -90.39211027 Ry
     estimated scf accuracy    <       0.00000242 Ry

     iteration # 10     ecut=    40.00 Ry     beta= 0.50
     Davidson diagonalization with overlap
     ethr =  7.56E-09,  avg # of iterations =  2.2

     total cpu time spent up to now is       26.1 secs

     End of self-consistent calculation

          k = 0.0000 0.0000 0.0000 (  2395 PWs)   bands (ev):

   -14.2457 -12.7284 -10.8453 -10.0216  -9.2423  -9.2230  -5.0828  -4.5454
    -3.1357  -1.0874  -0.1424   0.3492   1.3067   2.6679   4.1294   4.4429
     5.9762   6.1918   6.9965   7.2435

          k =-0.0001-0.0001 0.6227 (  2372 PWs)   bands (ev):

   -13.7290 -12.2430 -10.4340  -9.6410  -8.8960  -8.8765  -4.7536  -4.3908
    -3.0119  -2.1430  -0.9481  -0.6432   0.2300   2.1908   2.9273   3.8511
     3.8734   4.7932   4.8776   7.9013

          k = 0.0001 0.0003-1.2454 (  2382 PWs)   bands (ev):

   -13.0839 -11.6435  -9.9483  -9.2021  -8.5023  -8.4820  -4.3861  -4.2286
    -4.1851  -2.8582  -2.8104  -0.1143   0.4118   0.6095   1.8539   2.4411
     3.1700   3.7366   4.8730   8.4754

          k =-0.0050-0.6925-0.0002 (  2382 PWs)   bands (ev):

   -13.7120 -12.6452 -12.0542 -11.5070  -7.7238  -6.7106  -6.1118  -4.6613
    -4.3356  -1.1760   0.5690   1.3386   1.8801   2.0849   2.5760   3.0137
     3.3783   7.2698   8.7525   9.2949

          k =-0.0051-0.6926 0.6225 (  2386 PWs)   bands (ev):

   -13.2189 -12.1629 -11.5989 -11.0593  -7.4446  -6.5213  -5.8370  -4.4053
    -4.1029  -1.1832  -0.7329  -0.4352  -0.1000   0.9444   1.0565   3.0097
     3.4966   6.6584   7.7113   9.4403

          k =-0.0048-0.6923-1.2455 (  2396 PWs)   bands (ev):

   -12.6129 -11.5710 -11.0456 -10.5209  -7.1410  -6.3218  -5.5386  -4.1170
    -3.8915  -3.1402  -2.3911  -1.8786  -0.7974  -0.0961   1.2959   3.4644
     4.1088   5.0214   8.2521   8.5255

          k =-0.5099 0.0077 0.0001 (  2378 PWs)   bands (ev):

   -14.2296 -12.7711 -10.8083 -10.0040  -9.2678  -9.2454  -5.0035  -4.5293
    -3.1410  -0.7419  -0.6956   0.3577   1.2930   3.0549   3.6187   4.4527
     5.9824   6.1926   6.6681   6.9898

          k =-0.5100 0.0076 0.6227 (  2382 PWs)   bands (ev):

   -13.7147 -12.2811 -10.4008  -9.6255  -8.9183  -8.8963  -4.6910  -4.3781
    -3.0166  -2.1181  -1.0223  -0.3031  -0.2396   2.2320   3.2090   3.6126
     3.9547   4.5648   4.8496   7.2393

          k =-0.5097 0.0080-1.2453 (  2400 PWs)   bands (ev):

   -13.0724 -11.6744  -9.9209  -9.1896  -8.5201  -8.4982  -4.3437  -4.2188
    -4.1548  -2.8722  -2.8613   0.1606   0.2321   0.4617   1.9024   2.3810
     3.1452   3.9849   4.5434   8.0322

          k =-0.5149-0.6848-0.0001 (  2398 PWs)   bands (ev):

   -13.7047 -12.6086 -12.1021 -11.5312  -7.6880  -6.7249  -6.0759  -4.6179
    -4.3611  -0.8044   0.0472   1.3416   1.8453   1.8955   2.0693   3.3689
     3.7226   7.5009   8.6793   9.0396

          k =-0.5150-0.6849 0.6225 (  2382 PWs)   bands (ev):

   -13.2125 -12.1299 -11.6417 -11.0803  -7.4153  -6.5335  -5.8078  -4.3694
    -4.1242  -1.1707  -0.4713  -0.3292  -0.1899   0.5485   0.9991   2.4305
     4.0957   6.7553   7.9234   9.1501

          k =-0.5147-0.6845-1.2455 (  2384 PWs)   bands (ev):

   -12.6078 -11.5435 -11.0808 -10.5372  -7.1192  -6.3312  -5.5156  -4.0909
    -3.9056  -3.1279  -2.3343  -1.9465  -0.8414   0.1633   0.9583   3.0255
     4.5377   5.1755   8.3438   8.4396

     the Fermi energy is     3.6863 ev

!    total energy              =     -90.39210973 Ry
     Harris-Foulkes estimate   =     -90.39210978 Ry
     estimated scf accuracy    <       0.00000007 Ry

     The total energy is the sum of the following terms:

     one-electron contribution =     -52.58414341 Ry
     hartree contribution      =      38.76941136 Ry
     xc contribution           =     -27.34804035 Ry
     ewald contribution        =     -49.22878389 Ry
     smearing contrib. (-TS)   =      -0.00055344 Ry

     convergence has been achieved in  10 iterations

     Forces acting on atoms (cartesian axes, Ry/au):

     atom    1 type  1   force =     0.00257630    0.00042453   -0.00004697
     atom    2 type  1   force =     0.07755020   -0.00149699   -0.00052204
     atom    3 type  1   force =    -0.02218851    0.09076844    0.00634201
     atom    4 type  1   force =     0.02217681   -0.09025295    0.00602432
     atom    5 type  1   force =    -0.02484190   -0.08804695   -0.00605312
     atom    6 type  1   force =    -0.07757491    0.00120596    0.00047774
     atom    7 type  1   force =    -0.00255845   -0.00113046    0.00008536
     atom    8 type  1   force =     0.02486045    0.08852842   -0.00630731

     Total force =     0.215400     Total SCF correction =     0.000615


     Computing stress (Cartesian axis) and pressure

          total   stress  (Ry/bohr**3)                   (kbar)     P=       42.02
  -0.00019801   0.00000646   0.00000090          -29.13        0.95        0.13
   0.00000646   0.00032776  -0.00000005            0.95       48.22       -0.01
   0.00000090  -0.00000005   0.00072713            0.13       -0.01      106.96


     number of scf cycles    =   3
     number of bfgs steps    =   2

     enthalpy old            =     -90.3548628268 Ry
     enthalpy new            =     -90.3920676753 Ry

     CASE: enthalpy_new < enthalpy_old

     new trust radius        =       0.6023820264 bohr
     new conv_thr            =       0.0000009077 Ry

     new unit-cell volume =    659.16248 a.u.^3 (    97.67780 Ang^3 )
     density =      1.63202 g/cm^3

CELL_PARAMETERS (bohr)
  12.264528047  -0.087023822   0.003656186
   0.139151708   9.212721946   0.001871415
   0.001289664  -0.001545919   5.833203635

ATOMIC_POSITIONS (crystal)
C             0.1649955729        0.7038171172        0.6227208340
C             0.4935441647        0.1998156140        0.6184430410
C             0.5903036006       -0.0372498074        0.6110689880
C             0.1605632905        0.4397338405        0.6159761904
C             0.5907455027        0.4347060882        0.6242265647
C             0.2573794501        0.2027947740        0.6216967526
C             0.5859590271        0.6987044303        0.6174558309
C             0.1602973913        0.9679349431        0.6291497983



     Writing output data file ./pp.save/
     NEW-OLD atomic charge density approx. for the potential
     extrapolated charge   33.96753, renormalised to   32.00000

     total cpu time spent up to now is       26.2 secs

     Self-consistent Calculation

     iteration #  1     ecut=    40.00 Ry     beta= 0.50
     Davidson diagonalization with overlap
     c_bands:  1 eigenvalues not converged
     c_bands:  1 eigenvalues not converged
     ethr =  1.00E-06,  avg # of iterations = 13.3

     total cpu time spent up to now is       29.9 secs

     total energy              =     -90.06181606 Ry
     Harris-Foulkes estimate   =     -87.66237902 Ry
     estimated scf accuracy    <       0.29005793 Ry

     iteration #  2     ecut=    40.00 Ry     beta= 0.50
     Davidson diagonalization with overlap
     ethr =  9.06E-04,  avg # of iterations =  4.2

     total cpu time spent up to now is       31.3 secs

     total energy              =     -90.38410552 Ry
     Harris-Foulkes estimate   =     -90.59956017 Ry
     estimated scf accuracy    <       0.72235131 Ry

     iteration #  3     ecut=    40.00 Ry     beta= 0.50
     Davidson diagonalization with overlap
     ethr =  9.06E-04,  avg # of iterations =  2.0

     total cpu time spent up to now is       32.2 secs

     total energy              =     -90.40123108 Ry
     Harris-Foulkes estimate   =     -90.43378568 Ry
     estimated scf accuracy    <       0.12777951 Ry

     iteration #  4     ecut=    40.00 Ry     beta= 0.50
     Davidson diagonalization with overlap
     ethr =  3.99E-04,  avg # of iterations =  1.2

     total cpu time spent up to now is       32.9 secs

     total energy              =     -90.39332942 Ry
     Harris-Foulkes estimate   =     -90.40701097 Ry
     estimated scf accuracy    <       0.03822729 Ry

     iteration #  5     ecut=    40.00 Ry     beta= 0.50
     Davidson diagonalization with overlap
     ethr =  1.19E-04,  avg # of iterations =  2.7

     total cpu time spent up to now is       33.9 secs

     total energy              =     -90.39297094 Ry
     Harris-Foulkes estimate   =     -90.39977855 Ry
     estimated scf accuracy    <       0.03145107 Ry

     iteration #  6     ecut=    40.00 Ry     beta= 0.50
     Davidson diagonalization with overlap
     ethr =  9.83E-05,  avg # of iterations =  1.0

     total cpu time spent up to now is       34.6 secs

     total energy              =     -90.39617211 Ry
     Harris-Foulkes estimate   =     -90.39797734 Ry
     estimated scf accuracy    <       0.01230478 Ry

     iteration #  7     ecut=    40.00 Ry     beta= 0.50
     Davidson diagonalization with overlap
     ethr =  3.85E-05,  avg # of iterations =  1.0

     total cpu time spent up to now is       35.3 secs

     total energy              =     -90.39702890 Ry
     Harris-Foulkes estimate   =     -90.39705208 Ry
     estimated scf accuracy    <       0.00008418 Ry

     iteration #  8     ecut=    40.00 Ry     beta= 0.50
     Davidson diagonalization with overlap
     ethr =  2.63E-07,  avg # of iterations =  4.9

     total cpu time spent up to now is       37.1 secs

     total energy              =     -90.39707333 Ry
     Harris-Foulkes estimate   =     -90.39710968 Ry
     estimated scf accuracy    <       0.00009412 Ry

     iteration #  9     ecut=    40.00 Ry     beta= 0.50
     Davidson diagonalization with overlap
     ethr =  2.63E-07,  avg # of iterations =  2.1

     total cpu time spent up to now is       38.1 secs

     total energy              =     -90.39709144 Ry
     Harris-Foulkes estimate   =     -90.39709142 Ry
     estimated scf accuracy    <       0.00000365 Ry

     iteration # 10     ecut=    40.00 Ry     beta= 0.50
     Davidson diagonalization with overlap
     ethr =  1.14E-08,  avg # of iterations =  2.5

     total cpu time spent up to now is       39.2 secs

     total energy              =     -90.39709134 Ry
     Harris-Foulkes estimate   =     -90.39709205 Ry
     estimated scf accuracy    <       0.00000230 Ry

     iteration # 11     ecut=    40.00 Ry     beta= 0.50
     Davidson diagonalization with overlap
     ethr =  7.18E-09,  avg # of iterations =  1.8

     total cpu time spent up to now is       40.1 secs

     End of self-consistent calculation

          k = 0.0000 0.0000 0.0000 (  2395 PWs)   bands (ev):

   -15.0217 -13.2320 -11.0853 -10.6624  -9.9692  -9.6063  -5.7897  -5.2486
    -4.1023  -1.6998  -1.1789  -0.4535  -0.2802   2.3090   3.1987   3.9518
     4.4068   4.7933   5.2698   6.6844

          k =-0.0002-0.0001 0.5554 (  2372 PWs)   bands (ev):

   -14.7760 -13.0036 -10.8923 -10.4880  -9.8211  -9.4498  -5.6255  -5.1961
    -4.0650  -3.1612  -1.7202  -0.9351  -0.1024   1.8775   2.4805   3.1294
     3.5293   4.1292   4.2609   7.3477

          k = 0.0003 0.0002-1.1108 (  2382 PWs)   bands (ev):

   -14.5023 -12.7508 -10.6814 -10.3008  -9.6633  -9.2829  -5.4518  -5.1433
    -4.3731  -4.0185  -2.7945  -0.6622   0.0727   0.8020   1.9453   2.6743
     2.8358   3.2004   4.3247   7.6368

          k =-0.0050-0.7033-0.0002 (  2382 PWs)   bands (ev):

   -14.6214 -12.9573 -12.4918 -12.1348  -7.7512  -7.0976  -7.0801  -5.4608
    -5.4333  -1.5831  -0.8768   0.4216   0.6327   0.7863   1.1249   2.0564
     2.9533   7.0528   8.2680   8.9596

          k =-0.0052-0.7034 0.5552 (  2386 PWs)   bands (ev):

   -14.3932 -12.7182 -12.2919 -11.9165  -7.6330  -7.0223  -6.9734  -5.3495
    -5.3319  -2.3087  -1.3167  -1.0157  -0.4569  -0.1256   0.8069   2.2669
     3.2691   6.9126   7.3424   9.0832

          k =-0.0047-0.7030-1.1110 (  2396 PWs)   bands (ev):

   -14.1413 -12.4525 -12.0742 -11.6759  -7.5103  -6.9455  -6.8626  -5.2636
    -5.1957  -3.4760  -2.2006  -1.5015  -1.1753  -0.9972   0.9700   2.4744
     3.6277   5.8378   7.6111   8.5001

          k =-0.5283 0.0080 0.0001 (  2378 PWs)   bands (ev):

   -15.0051 -13.2777 -11.0393 -10.6450 -10.0038  -9.6349  -5.6814  -5.2262
    -4.1114  -1.6866  -0.9656  -0.7621  -0.4769   2.7580   3.2185   3.3612
     4.4290   4.7696   5.2530   6.3950

          k =-0.5284 0.0079 0.5555 (  2382 PWs)   bands (ev):

   -14.7610 -13.0449 -10.8498 -10.4721  -9.8532  -9.4759  -5.5331  -5.1764
    -4.0737  -3.1298  -1.7928  -0.6850  -0.5610   1.9353   2.8367   3.2215
     3.2922   3.9192   4.0813   6.7309

          k =-0.5279 0.0082-1.1107 (  2400 PWs)   bands (ev):

   -14.4893 -12.7866 -10.6434 -10.2870  -9.6922  -9.3058  -5.3767  -5.1265
    -4.3347  -4.0255  -2.8775  -0.4262  -0.3352   0.8726   2.0093   2.5910
     3.0841   3.2363   3.8767   7.1203

          k =-0.5333-0.6953-0.0001 (  2398 PWs)   bands (ev):

   -14.6118 -12.9176 -12.5192 -12.1925  -7.7097  -7.1163  -7.0418  -5.4596
    -5.3972  -1.1707  -0.8701   0.0272   0.4475   0.7572   1.1086   1.2618
     3.7920   7.3295   8.2990   8.6004

          k =-0.5334-0.6954 0.5554 (  2382 PWs)   bands (ev):

   -14.3845 -12.6817 -12.3165 -11.9693  -7.5970  -7.0399  -6.9393  -5.3726
    -5.2767  -2.2898  -0.9646  -0.9376  -0.5466  -0.1811   0.2976   1.5935
     3.9964   7.0996   7.5938   8.7445

          k =-0.5329-0.6951-1.1109 (  2384 PWs)   bands (ev):

   -14.1337 -12.4200 -12.0952 -11.7226  -7.4803  -6.9610  -6.8324  -5.2841
    -5.1488  -3.4534  -2.1261  -1.5970  -1.2322  -0.6773   0.5193   1.9133
     4.2101   6.1136   7.8321   8.5483

     the Fermi energy is     3.2153 ev

!    total energy              =     -90.39709167 Ry
     Harris-Foulkes estimate   =     -90.39709170 Ry
     estimated scf accuracy    <       0.00000007 Ry

     The total energy is the sum of the following terms:

     one-electron contribution =     -57.95183764 Ry
     hartree contribution      =      40.71367754 Ry
     xc contribution           =     -27.51425244 Ry
     ewald contribution        =     -45.64169346 Ry
     smearing contrib. (-TS)   =      -0.00298567 Ry

     convergence has been achieved in  11 iterations

     Forces acting on atoms (cartesian axes, Ry/au):

     atom    1 type  1   force =    -0.01013506   -0.00043724   -0.00003611
     atom    2 type  1   force =    -0.04584271    0.00171905    0.00054734
     atom    3 type  1   force =     0.03891410   -0.14044229   -0.00069620
     atom    4 type  1   force =    -0.03933417    0.14206735    0.00003087
     atom    5 type  1   force =     0.04246887    0.13673677    0.00002116
     atom    6 type  1   force =     0.04690038   -0.00186818   -0.00051005
     atom    7 type  1   force =     0.01010850    0.00147880   -0.00000137
     atom    8 type  1   force =    -0.04307991   -0.13925427    0.00064434

     Total force =     0.298719     Total SCF correction =     0.000465


     Computing stress (Cartesian axis) and pressure

          total   stress  (Ry/bohr**3)                   (kbar)     P=      114.16
   0.00049130   0.00001775  -0.00000224           72.27        2.61       -0.33
   0.00001775   0.00178399   0.00000020            2.61      262.43        0.03
  -0.00000224   0.00000020   0.00005294           -0.33        0.03        7.79


     number of scf cycles    =   4
     number of bfgs steps    =   3

     enthalpy old            =     -90.3920676753 Ry
     enthalpy new            =     -90.3970468655 Ry

     CASE: enthalpy_new < enthalpy_old

     new trust radius        =       0.1065186340 bohr
     new conv_thr            =       0.0000004979 Ry

     new unit-cell volume =    672.92730 a.u.^3 (    99.71754 Ang^3 )
     density =      1.59863 g/cm^3

CELL_PARAMETERS (bohr)
  12.381661763  -0.087063634   0.003098862
   0.141818347   9.403849097   0.001908517
   0.001125367  -0.001533096   5.778797904

ATOMIC_POSITIONS (crystal)
C             0.1640360919        0.7037967900        0.6227167404
C             0.4936942321        0.1998537147        0.6185069060
C             0.5911984762       -0.0434914314        0.6105755308
C             0.1596518537        0.4460612779        0.6155712227
C             0.5916158921        0.4408060019        0.6246275612
C             0.2572664553        0.2027386464        0.6216380657
C             0.5869167073        0.6987841327        0.6174571902
C             0.1594082914        0.9617078678        0.6296447830



     Writing output data file ./pp.save/
     NEW-OLD atomic charge density approx. for the potential
     extrapolated charge   32.65456, renormalised to   32.00000

     total cpu time spent up to now is       40.2 secs

     Self-consistent Calculation

     iteration #  1     ecut=    40.00 Ry     beta= 0.50
     Davidson diagonalization with overlap
     ethr =  1.00E-06,  avg # of iterations =  6.9

     total cpu time spent up to now is       43.9 secs

     total energy              =     -90.35765799 Ry
     Harris-Foulkes estimate   =     -89.55496656 Ry
     estimated scf accuracy    <       0.09178288 Ry

     iteration #  2     ecut=    40.00 Ry     beta= 0.50
     Davidson diagonalization with overlap
     ethr =  2.87E-04,  avg # of iterations =  3.9

     total cpu time spent up to now is       45.6 secs

     total energy              =     -90.41347066 Ry
     Harris-Foulkes estimate   =     -90.47678788 Ry
     estimated scf accuracy    <       0.19887138 Ry

     iteration #  3     ecut=    40.00 Ry     beta= 0.50
     Davidson diagonalization with overlap
     ethr =  2.87E-04,  avg # of iterations =  2.3

     total cpu time spent up to now is       46.7 secs

     total energy              =     -90.43027546 Ry
     Harris-Foulkes estimate   =     -90.43340976 Ry
     estimated scf accuracy    <       0.01215034 Ry

     iteration #  4     ecut=    40.00 Ry     beta= 0.50
     Davidson diagonalization with overlap
     ethr =  3.80E-05,  avg # of iterations =  2.3

     total cpu time spent up to now is       47.9 secs

     total energy              =     -90.43050400 Ry
     Harris-Foulkes estimate   =     -90.43159699 Ry
     estimated scf accuracy    <       0.00852560 Ry

     iteration #  5     ecut=    40.00 Ry     beta= 0.50
     Davidson diagonalization with overlap
     ethr =  2.66E-05,  avg # of iterations =  1.0

     total cpu time spent up to now is       48.7 secs

     total energy              =     -90.43017998 Ry
     Harris-Foulkes estimate   =     -90.43115650 Ry
     estimated scf accuracy    <       0.00312924 Ry

     iteration #  6     ecut=    40.00 Ry     beta= 0.50
     Davidson diagonalization with overlap
     ethr =  9.78E-06,  avg # of iterations =  2.2

     total cpu time spent up to now is       49.9 secs

     total energy              =     -90.43047813 Ry
     Harris-Foulkes estimate   =     -90.43055386 Ry
     estimated scf accuracy    <       0.00017608 Ry

     iteration #  7     ecut=    40.00 Ry     beta= 0.50
     Davidson diagonalization with overlap
     ethr =  5.50E-07,  avg # of iterations =  3.0

     total cpu time spent up to now is       51.5 secs

     total energy              =     -90.43053683 Ry
     Harris-Foulkes estimate   =     -90.43054138 Ry
     estimated scf accuracy    <       0.00001846 Ry

     iteration #  8     ecut=    40.00 Ry     beta= 0.50
     Davidson diagonalization with overlap
     ethr =  5.77E-08,  avg # of iterations =  2.2

     total cpu time spent up to now is       52.7 secs

     total energy              =     -90.43053744 Ry
     Harris-Foulkes estimate   =     -90.43053942 Ry
     estimated scf accuracy    <       0.00000551 Ry

     iteration #  9     ecut=    40.00 Ry     beta= 0.50
     Davidson diagonalization with overlap
     ethr =  1.72E-08,  avg # of iterations =  2.3

     total cpu time spent up to now is       54.0 secs

     End of self-consistent calculation

          k = 0.0000 0.0000 0.0000 (  2395 PWs)   bands (ev):

   -14.7921 -13.1392 -11.2423 -10.6599  -9.8895  -9.7322  -5.5296  -5.3073
    -4.1343  -1.4477  -1.4036  -0.4019  -0.3363   2.0213   3.0149   3.6696
     4.3189   4.6698   5.2211   6.6322

          k =-0.0001-0.0001 0.5606 (  2372 PWs)   bands (ev):

   -14.5206 -12.8880 -11.0344 -10.4672  -9.7248  -9.5608  -5.3475  -5.2459
    -4.0859  -3.0127  -1.6896  -1.1498  -0.2109   1.6258   2.2178   2.9492
     3.3043   3.9942   4.0070   7.2936

          k = 0.0003 0.0002-1.1213 (  2382 PWs)   bands (ev):

   -14.2146 -12.6068 -10.8068 -10.2589  -9.5490  -9.3771  -5.1836  -5.1534
    -4.3011  -4.0275  -2.8301  -0.8634  -0.0228   0.4972   1.7083   2.4003
     2.5914   2.9994   4.0684   7.5286

          k =-0.0048-0.6890-0.0002 (  2382 PWs)   bands (ev):

   -14.3221 -13.0710 -12.3391 -12.1698  -8.0284  -7.2477  -6.9982  -5.3852
    -5.1769  -1.7966  -0.5367   0.3130   0.3210   0.6437   1.4386   2.0973
     2.7568   6.7551   7.7622   8.7123

          k =-0.0050-0.6891 0.5605 (  2386 PWs)   bands (ev):

   -14.0683 -12.8146 -12.1050 -11.9452  -7.8993  -7.1638  -6.8748  -5.2841
    -5.0336  -2.0903  -1.5153  -1.1815  -0.6678   0.0742   0.5051   2.3278
     3.0731   6.3975   7.0567   8.8475

          k =-0.0046-0.6888-1.1215 (  2396 PWs)   bands (ev):

   -13.7850 -12.5274 -11.8452 -11.6977  -7.7647  -7.0778  -6.7466  -5.1805
    -4.8802  -3.3447  -2.4160  -1.7646  -1.1939  -1.0395   0.6804   2.5553
     3.4379   5.3184   7.3459   8.2330

          k =-0.5233 0.0079 0.0001 (  2378 PWs)   bands (ev):

   -14.7741 -13.1868 -11.2014 -10.6411  -9.9175  -9.7610  -5.4205  -5.2896
    -4.1407  -1.4345  -1.0604  -1.0117  -0.3588   2.4620   3.0305   3.0900
     4.3399   4.6476   5.2074   6.2137

          k =-0.5234 0.0078 0.5608 (  2382 PWs)   bands (ev):

   -14.5044 -12.9312 -10.9968 -10.4502  -9.7506  -9.5870  -5.2553  -5.2305
    -4.0921  -2.9810  -1.7634  -0.7980  -0.7647   1.6760   2.5819   3.0233
     3.0526   3.6939   3.9526   6.5801

          k =-0.5230 0.0081-1.1212 (  2400 PWs)   bands (ev):

   -14.2006 -12.6443 -10.7734 -10.2441  -9.5720  -9.3999  -5.1705  -5.0803
    -4.2627  -4.0314  -2.9112  -0.5572  -0.4947   0.5588   1.7711   2.3195
     2.8701   3.0025   3.6351   7.0191

          k =-0.5281-0.6811-0.0001 (  2398 PWs)   bands (ev):

   -14.3126 -13.0314 -12.3941 -12.1980  -7.9917  -7.2643  -6.9646  -5.4074
    -5.1117  -1.3953  -0.5310  -0.2642   0.3402   0.6170   1.3091   1.4230
     3.5289   7.0278   7.7966   8.3432

          k =-0.5283-0.6812 0.5606 (  2382 PWs)   bands (ev):

   -14.0598 -12.7782 -12.1551 -11.9703  -7.8674  -7.1789  -6.8455  -5.3041
    -4.9773  -2.0721  -1.1474  -1.1330  -0.7559   0.0160   0.0210   1.6669
     3.7410   6.5485   7.3032   8.5150

          k =-0.5278-0.6809-1.1214 (  2384 PWs)   bands (ev):

   -13.7777 -12.4951 -11.8893 -11.7191  -7.7381  -7.0909  -6.7211  -5.1979
    -4.8341  -3.3226  -2.3449  -1.8544  -1.1172  -0.8654   0.2527   2.0097
     3.9687   5.5420   7.5597   8.3623

     the Fermi energy is     3.0094 ev

!    total energy              =     -90.43053826 Ry
     Harris-Foulkes estimate   =     -90.43053832 Ry
     estimated scf accuracy    <       0.00000013 Ry

     The total energy is the sum of the following terms:

     one-electron contribution =     -55.85685098 Ry
     hartree contribution      =      39.50223061 Ry
     xc contribution           =     -27.28512534 Ry
     ewald contribution        =     -46.78761879 Ry
     smearing contrib. (-TS)   =      -0.00317376 Ry

     convergence has been achieved in   9 iterations

     Forces acting on atoms (cartesian axes, Ry/au):

     atom    1 type  1   force =    -0.00278931    0.00017365    0.00000355
     atom    2 type  1   force =     0.01588274   -0.00032501    0.00015629
     atom    3 type  1   force =    -0.00173071   -0.01675785    0.00160288
     atom    4 type  1   force =     0.00195961    0.01626272    0.00180504
     atom    5 type  1   force =    -0.00123628    0.01798197   -0.00183155
     atom    6 type  1   force =    -0.01622083    0.00035623   -0.00013381
     atom    7 type  1   force =     0.00278516   -0.00078739    0.00003203
     atom    8 type  1   force =     0.00134961   -0.01690432   -0.00163443

     Total force =     0.041331     Total SCF correction =     0.000744


     Computing stress (Cartesian axis) and pressure

          total   stress  (Ry/bohr**3)                   (kbar)     P=       22.52
   0.00003035   0.00000581  -0.00000006            4.46        0.85       -0.01
   0.00000581   0.00030398   0.00000017            0.85       44.72        0.03
  -0.00000006   0.00000017   0.00012491           -0.01        0.03       18.37


     number of scf cycles    =   5
     number of bfgs steps    =   4

     enthalpy old            =     -90.3970468655 Ry
     enthalpy new            =     -90.4304925186 Ry

     CASE: enthalpy_new < enthalpy_old

     new trust radius        =       0.0917376960 bohr
     new conv_thr            =       0.0000001798 Ry

     new unit-cell volume =    686.48210 a.u.^3 (   101.72615 Ang^3 )
     density =      1.56707 g/cm^3

CELL_PARAMETERS (bohr)
  12.336309702  -0.085007978   0.003350606
   0.143175630   9.461261162   0.001962749
   0.001218806  -0.001540729   5.880979141

ATOMIC_POSITIONS (crystal)
C             0.1647389565        0.7037947026        0.6227022604
C             0.4960104586        0.1998140100        0.6185207997
C             0.5908864723       -0.0452253451        0.6125148283
C             0.1599902330        0.4477237205        0.6175472049
C             0.5912892734        0.4427168905        0.6226480623
C             0.2549203678        0.2027787916        0.6216258878
C             0.5862135718        0.6987125730        0.6174763321
C             0.1597386666        0.9599416569        0.6277026245



     Writing output data file ./pp.save/
     NEW-OLD atomic charge density approx. for the potential
     extrapolated charge   32.63184, renormalised to   32.00000

     total cpu time spent up to now is       54.1 secs

     Self-consistent Calculation

     iteration #  1     ecut=    40.00 Ry     beta= 0.50
     Davidson diagonalization with overlap
     ethr =  1.00E-06,  avg # of iterations =  6.3

     total cpu time spent up to now is       57.5 secs

     total energy              =     -90.39133895 Ry
     Harris-Foulkes estimate   =     -89.57774780 Ry
     estimated scf accuracy    <       0.04018446 Ry

     iteration #  2     ecut=    40.00 Ry     beta= 0.50
     Davidson diagonalization with overlap
     ethr =  1.26E-04,  avg # of iterations =  3.6

     total cpu time spent up to now is       59.5 secs

     total energy              =     -90.42811167 Ry
     Harris-Foulkes estimate   =     -90.46372011 Ry
     estimated scf accuracy    <       0.12585461 Ry

     iteration #  3     ecut=    40.00 Ry     beta= 0.50
     Davidson diagonalization with overlap
     ethr =  1.26E-04,  avg # of iterations =  2.4

     total cpu time spent up to now is       61.0 secs

     total energy              =     -90.43552161 Ry
     Harris-Foulkes estimate   =     -90.43781223 Ry
     estimated scf accuracy    <       0.01374847 Ry

     iteration #  4     ecut=    40.00 Ry     beta= 0.50
     Davidson diagonalization with overlap
     ethr =  4.30E-05,  avg # of iterations =  1.0

     total cpu time spent up to now is       62.0 secs

     total energy              =     -90.43536585 Ry
     Harris-Foulkes estimate   =     -90.43586361 Ry
     estimated scf accuracy    <       0.00713015 Ry

     iteration #  5     ecut=    40.00 Ry     beta= 0.50
     Davidson diagonalization with overlap
     ethr =  2.23E-05,  avg # of iterations =  1.0

     total cpu time spent up to now is       63.0 secs

     total energy              =     -90.43391747 Ry
     Harris-Foulkes estimate   =     -90.43553016 Ry
     estimated scf accuracy    <       0.00587484 Ry

     iteration #  6     ecut=    40.00 Ry     beta= 0.50
     Davidson diagonalization with overlap
     ethr =  1.84E-05,  avg # of iterations =  2.0

     total cpu time spent up to now is       64.4 secs

     total energy              =     -90.43401090 Ry
     Harris-Foulkes estimate   =     -90.43435236 Ry
     estimated scf accuracy    <       0.00077680 Ry

     iteration #  7     ecut=    40.00 Ry     beta= 0.50
     Davidson diagonalization with overlap
     ethr =  2.43E-06,  avg # of iterations =  3.6

     total cpu time spent up to now is       66.4 secs

     total energy              =     -90.43419215 Ry
     Harris-Foulkes estimate   =     -90.43420302 Ry
     estimated scf accuracy    <       0.00002414 Ry

     iteration #  8     ecut=    40.00 Ry     beta= 0.50
     Davidson diagonalization with overlap
     ethr =  7.54E-08,  avg # of iterations =  2.7

     total cpu time spent up to now is       68.2 secs

     total energy              =     -90.43419910 Ry
     Harris-Foulkes estimate   =     -90.43419984 Ry
     estimated scf accuracy    <       0.00000157 Ry

     iteration #  9     ecut=    40.00 Ry     beta= 0.50
     Davidson diagonalization with overlap
     ethr =  4.90E-09,  avg # of iterations =  3.5

     total cpu time spent up to now is       70.3 secs

     total energy              =     -90.43419963 Ry
     Harris-Foulkes estimate   =     -90.43420101 Ry
     estimated scf accuracy    <       0.00000537 Ry

     iteration # 10     ecut=    40.00 Ry     beta= 0.50
     Davidson diagonalization with overlap
     ethr =  4.90E-09,  avg # of iterations =  2.0

     total cpu time spent up to now is       71.9 secs

     total energy              =     -90.43419948 Ry
     Harris-Foulkes estimate   =     -90.43419992 Ry
     estimated scf accuracy    <       0.00000117 Ry

     iteration # 11     ecut=    40.00 Ry     beta= 0.50
     Davidson diagonalization with overlap
     ethr =  3.67E-09,  avg # of iterations =  2.4

     total cpu time spent up to now is       73.5 secs

     End of self-consistent calculation

          k = 0.0000 0.0000 0.0000 (  2395 PWs)   bands (ev):

   -14.8241 -13.2054 -11.3547 -10.7895  -9.9824  -9.8666  -5.4877  -5.4843
    -4.3720  -1.6642  -1.4923  -0.5799  -0.4897   1.8262   2.7796   3.5366
     4.0337   4.4053   4.9291   6.5671

          k =-0.0002-0.0001 0.5509 (  2372 PWs)   bands (ev):

   -14.5809 -12.9823 -11.1714 -10.6185  -9.8369  -9.7156  -5.4316  -5.3188
    -4.3295  -3.1066  -1.8117  -1.2661  -0.3215   1.5036   2.0177   2.7570
     3.1659   3.8148   3.8315   7.1247

          k = 0.0003 0.0002-1.1018 (  2382 PWs)   bands (ev):

   -14.3100 -12.7355 -10.9726 -10.4349  -9.6825  -9.5549  -5.3783  -5.1395
    -4.3176  -4.2608  -2.8581  -1.0129  -0.1564   0.4599   1.6198   2.3247
     2.3496   2.8962   3.8924   7.3554

          k =-0.0047-0.6848-0.0002 (  2382 PWs)   bands (ev):

   -14.3332 -13.1978 -12.4556 -12.2070  -8.1571  -7.3929  -7.1557  -5.6053
    -5.1331  -1.9925  -0.7203   0.0297   0.1840   0.3774   1.2017   2.0244
     2.7270   6.6367   7.5418   8.6154

          k =-0.0049-0.6849 0.5507 (  2386 PWs)   bands (ev):

   -14.1064 -12.9695 -12.2488 -12.0070  -8.0460  -7.3197  -7.0476  -5.5167
    -4.9990  -2.1542  -1.7359  -1.3491  -0.8151  -0.0422   0.3489   2.2288
     3.0177   6.2866   6.9217   8.7446

          k =-0.0044-0.6846-1.1020 (  2396 PWs)   bands (ev):

   -13.8560 -12.7168 -12.0219 -11.7887  -7.9305  -7.2449  -6.9358  -5.4257
    -4.8563  -3.3189  -2.4889  -1.8205  -1.4425  -1.0737   0.5027   2.4297
     3.3469   5.2930   7.1851   8.1299

          k =-0.5252 0.0079 0.0001 (  2378 PWs)   bands (ev):

   -14.8048 -13.2551 -11.3148 -10.7700 -10.0103  -9.8963  -5.4678  -5.3659
    -4.3778  -1.6495  -1.1526  -1.1114  -0.6044   2.2753   2.7975   2.9423
     4.0566   4.3802   4.9145   6.0994

          k =-0.5254 0.0078 0.5510 (  2382 PWs)   bands (ev):

   -14.5634 -13.0275 -11.1345 -10.6008  -9.8627  -9.7428  -5.4171  -5.2147
    -4.3353  -3.0728  -1.8866  -0.9218  -0.8843   1.5532   2.4020   2.8237
     2.9119   3.5025   3.7720   6.4390

          k =-0.5249 0.0082-1.1017 (  2400 PWs)   bands (ev):

   -14.2947 -12.7753 -10.9395 -10.4193  -9.7056  -9.5788  -5.3659  -5.0553
    -4.3058  -4.2353  -2.9428  -0.7095  -0.6410   0.5209   1.6851   2.2406
     2.6892   2.8485   3.4409   6.8392

          k =-0.5299-0.6769-0.0001 (  2398 PWs)   bands (ev):

   -14.3230 -13.1574 -12.5118 -12.2366  -8.1222  -7.4093  -7.1240  -5.6261
    -5.0587  -1.5865  -0.7134  -0.4069   0.0551   0.3486   1.1846   1.2310
     3.4882   6.9231   7.5826   8.2294

          k =-0.5301-0.6770 0.5508 (  2382 PWs)   bands (ev):

   -14.0972 -12.9322 -12.3003 -12.0336  -8.0151  -7.3347  -7.0198  -5.5356
    -4.9343  -2.1346  -1.3635  -1.2974  -0.9043  -0.1476  -0.1014   1.5583
     3.6786   6.4412   7.1792   8.3988

          k =-0.5296-0.6766-1.1019 (  2384 PWs)   bands (ev):

   -13.8479 -12.6834 -12.0676 -11.8117  -7.9043  -7.2582  -6.9112  -5.4424
    -4.8026  -3.2951  -2.4158  -1.9137  -1.1595  -1.1004   0.0603   1.8702
     3.8796   5.5182   7.4104   8.1874

     the Fermi energy is     2.8496 ev

!    total energy              =     -90.43419966 Ry
     Harris-Foulkes estimate   =     -90.43419966 Ry
     estimated scf accuracy    <          6.5E-09 Ry

     The total energy is the sum of the following terms:

     one-electron contribution =     -56.31561143 Ry
     hartree contribution      =      39.55421725 Ry
     xc contribution           =     -27.24355384 Ry
     ewald contribution        =     -46.42653633 Ry
     smearing contrib. (-TS)   =      -0.00271531 Ry

     convergence has been achieved in  11 iterations

     Forces acting on atoms (cartesian axes, Ry/au):

     atom    1 type  1   force =    -0.00216362   -0.00036106    0.00001436
     atom    2 type  1   force =     0.01475438    0.00011766    0.00009025
     atom    3 type  1   force =    -0.00701653    0.00014254    0.00153120
     atom    4 type  1   force =     0.00686792    0.00084125    0.00164100
     atom    5 type  1   force =    -0.00753007   -0.00191855   -0.00164565
     atom    6 type  1   force =    -0.01407114   -0.00009337   -0.00004930
     atom    7 type  1   force =     0.00214201    0.00192030   -0.00003922
     atom    8 type  1   force =     0.00701705   -0.00064875   -0.00154265

     Total force =     0.025419     Total SCF correction =     0.000174


     Computing stress (Cartesian axis) and pressure

          total   stress  (Ry/bohr**3)                   (kbar)     P=        6.59
  -0.00003119   0.00000131   0.00000027           -4.59        0.19        0.04
   0.00000131   0.00006866  -0.00000012            0.19       10.10       -0.02
   0.00000027  -0.00000012   0.00009692            0.04       -0.02       14.26


     number of scf cycles    =   6
     number of bfgs steps    =   5

     enthalpy old            =     -90.4304925186 Ry
     enthalpy new            =     -90.4341529924 Ry

     CASE: enthalpy_new < enthalpy_old

     new trust radius        =       0.1365706844 bohr
     new conv_thr            =       0.0000001475 Ry

     new unit-cell volume =    703.17797 a.u.^3 (   104.20022 Ang^3 )
     density =      1.52986 g/cm^3

CELL_PARAMETERS (bohr)
  12.248361614  -0.083117020   0.003861586
   0.143951816   9.513039560   0.001931076
   0.001395463  -0.001596803   6.034250949

ATOMIC_POSITIONS (crystal)
C             0.1657754419        0.7036978139        0.6226858225
C             0.4989837481        0.1998446401        0.6185393035
C             0.5900895278       -0.0467032296        0.6154216529
C             0.1607810105        0.4493578009        0.6205015281
C             0.5904150858        0.4439113211        0.6196983760
C             0.2520220454        0.2027504944        0.6216205593
C             0.5851707385        0.6990761717        0.6174756249
C             0.1605504021        0.9583219875        0.6247951327



     Writing output data file ./pp.save/
     NEW-OLD atomic charge density approx. for the potential
     extrapolated charge   32.75978, renormalised to   32.00000

     total cpu time spent up to now is       73.6 secs

     Self-consistent Calculation

     iteration #  1     ecut=    40.00 Ry     beta= 0.50
     Davidson diagonalization with overlap
     ethr =  1.00E-06,  avg # of iterations =  7.2

     total cpu time spent up to now is       78.2 secs

     total energy              =     -90.38122800 Ry
     Harris-Foulkes estimate   =     -89.38994320 Ry
     estimated scf accuracy    <       0.04812204 Ry

     iteration #  2     ecut=    40.00 Ry     beta= 0.50
     Davidson diagonalization with overlap
     ethr =  1.50E-04,  avg # of iterations =  3.8

     total cpu time spent up to now is       80.9 secs

     total energy              =     -90.43116554 Ry
     Harris-Foulkes estimate   =     -90.47078877 Ry
     estimated scf accuracy    <       0.13593437 Ry

     iteration #  3     ecut=    40.00 Ry     beta= 0.50
     Davidson diagonalization with overlap
     ethr =  1.50E-04,  avg # of iterations =  2.4

     total cpu time spent up to now is       82.8 secs

     total energy              =     -90.43869469 Ry
     Harris-Foulkes estimate   =     -90.44147072 Ry
     estimated scf accuracy    <       0.01819934 Ry

     iteration #  4     ecut=    40.00 Ry     beta= 0.50
     Davidson diagonalization with overlap
     ethr =  5.69E-05,  avg # of iterations =  1.0

     total cpu time spent up to now is       84.1 secs

     total energy              =     -90.43840549 Ry
     Harris-Foulkes estimate   =     -90.43927097 Ry
     estimated scf accuracy    <       0.01274591 Ry

     iteration #  5     ecut=    40.00 Ry     beta= 0.50
     Davidson diagonalization with overlap
     ethr =  3.98E-05,  avg # of iterations =  1.0

     total cpu time spent up to now is       85.3 secs

     total energy              =     -90.43686868 Ry
     Harris-Foulkes estimate   =     -90.43868962 Ry
     estimated scf accuracy    <       0.00856177 Ry

     iteration #  6     ecut=    40.00 Ry     beta= 0.50
     Davidson diagonalization with overlap
     ethr =  2.68E-05,  avg # of iterations =  1.2

     total cpu time spent up to now is       86.7 secs

     total energy              =     -90.43571743 Ry
     Harris-Foulkes estimate   =     -90.43715549 Ry
     estimated scf accuracy    <       0.00316764 Ry

     iteration #  7     ecut=    40.00 Ry     beta= 0.50
     Davidson diagonalization with overlap
     ethr =  9.90E-06,  avg # of iterations =  3.0

     total cpu time spent up to now is       89.0 secs

     total energy              =     -90.43637807 Ry
     Harris-Foulkes estimate   =     -90.43637910 Ry
     estimated scf accuracy    <       0.00002229 Ry

     iteration #  8     ecut=    40.00 Ry     beta= 0.50
     Davidson diagonalization with overlap
     ethr =  6.97E-08,  avg # of iterations =  3.3

     total cpu time spent up to now is       91.5 secs

     total energy              =     -90.43638348 Ry
     Harris-Foulkes estimate   =     -90.43639206 Ry
     estimated scf accuracy    <       0.00002500 Ry

     iteration #  9     ecut=    40.00 Ry     beta= 0.50
     Davidson diagonalization with overlap
     ethr =  6.97E-08,  avg # of iterations =  2.0

     total cpu time spent up to now is       93.3 secs

     total energy              =     -90.43638519 Ry
     Harris-Foulkes estimate   =     -90.43638601 Ry
     estimated scf accuracy    <       0.00000155 Ry

     iteration # 10     ecut=    40.00 Ry     beta= 0.50
     Davidson diagonalization with overlap
     ethr =  4.86E-09,  avg # of iterations =  3.0

     total cpu time spent up to now is       95.7 secs

     total energy              =     -90.43638576 Ry
     Harris-Foulkes estimate   =     -90.43638594 Ry
     estimated scf accuracy    <       0.00000063 Ry

     iteration # 11     ecut=    40.00 Ry     beta= 0.50
     Davidson diagonalization with overlap
     ethr =  1.95E-09,  avg # of iterations =  1.7

     total cpu time spent up to now is       97.3 secs

     End of self-consistent calculation

          k = 0.0000 0.0000 0.0000 (  2395 PWs)   bands (ev):

   -14.9127 -13.2998 -11.4976 -10.9699 -10.1207 -10.0258  -5.7266  -5.4852
    -4.6818  -1.9832  -1.5851  -0.9019  -0.5814   1.6007   2.4876   3.4077
     3.6666   4.0757   4.5664   6.4877

          k =-0.0002-0.0001 0.5369 (  2372 PWs)   bands (ev):

   -14.7081 -13.1138 -11.3462 -10.8276 -10.0010  -9.9015  -5.6851  -5.3364
    -4.6481  -3.2545  -1.9682  -1.3944  -0.4427   1.3661   1.7779   2.5259
     3.0118   3.6050   3.6453   7.1622

          k = 0.0003 0.0002-1.0738 (  2382 PWs)   bands (ev):

   -14.4839 -12.9115 -11.1837 -10.6762  -9.8747  -9.7702  -5.6437  -5.1795
    -4.6146  -4.3097  -2.8869  -1.1838  -0.3073   0.4389   1.5248   2.0522
     2.2592   2.7970   3.7061   7.1484

          k =-0.0046-0.6811-0.0002 (  2382 PWs)   bands (ev):

   -14.4073 -13.3579 -12.5822 -12.2955  -8.3077  -7.5681  -7.3916  -5.9005
    -5.1201  -2.2309  -1.0133  -0.3308   0.0542   0.0555   0.8636   1.9311
     2.7078   6.5124   7.3063   8.5278

          k =-0.0048-0.6812 0.5367 (  2386 PWs)   bands (ev):

   -14.2173 -13.1666 -12.4109 -12.1290  -8.2186  -7.5089  -7.3041  -5.8291
    -5.0013  -2.2766  -2.0088  -1.5483  -0.9777  -0.2133   0.1913   2.1007
     2.9641   6.1981   6.7727   8.6438

          k =-0.0043-0.6809-1.0740 (  2396 PWs)   bands (ev):

   -14.0106 -12.9580 -12.2257 -11.9496  -8.1264  -7.4487  -7.2140  -5.7558
    -4.8761  -3.3137  -2.5621  -1.8601  -1.7595  -1.1215   0.3175   2.2665
     3.2476   5.3162   7.0018   8.0144

          k =-0.5290 0.0080 0.0001 (  2378 PWs)   bands (ev):

   -14.8919 -13.3523 -11.4580 -10.9495 -10.1492 -10.0570  -5.7109  -5.3451
    -4.6874  -1.9664  -1.2559  -1.2151  -0.9296   2.0610   2.5074   2.7938
     3.6924   4.0467   4.5499   5.9717

          k =-0.5291 0.0079 0.5370 (  2382 PWs)   bands (ev):

   -14.6890 -13.1621 -11.3093 -10.8089 -10.0275  -9.9303  -5.6712  -5.2147
    -4.6536  -3.2177  -2.0450  -1.0572  -1.0232   1.4159   2.1857   2.5864
     2.7623   3.2847   3.5597   6.2730

          k =-0.5286 0.0082-1.0737 (  2400 PWs)   bands (ev):

   -14.4669 -12.9546 -11.1501 -10.6595  -9.8988  -9.7960  -5.6316  -5.0783
    -4.6198  -4.2635  -2.9774  -0.8818  -0.8144   0.5004   1.5935   2.1684
     2.4197   2.7356   3.2273   6.6188

          k =-0.5336-0.6731-0.0001 (  2398 PWs)   bands (ev):

   -14.3961 -13.3164 -12.6407 -12.3274  -8.2741  -7.5846  -7.3618  -5.9200
    -5.0331  -1.8163  -1.0050  -0.5518  -0.3030   0.0220   0.8439   1.1287
     3.4573   6.8186   7.3538   8.1183

          k =-0.5338-0.6732 0.5369 (  2382 PWs)   bands (ev):

   -14.2071 -13.1280 -12.4649 -12.1579  -8.1884  -7.5242  -7.2774  -5.8470
    -4.9247  -2.2548  -1.6278  -1.4917  -1.0688  -0.3274  -0.2738   1.4144
     3.6186   6.3605   7.0470   8.2764

          k =-0.5333-0.6729-1.0739 (  2384 PWs)   bands (ev):

   -14.0015 -12.9229 -12.2743 -11.9749  -8.1004  -7.4625  -7.1901  -5.7722
    -4.8111  -3.2873  -2.4856  -1.9592  -1.4246  -1.1904  -0.1497   1.6845
     3.7856   5.5479   7.2449   8.0530

     the Fermi energy is     2.6568 ev

!    total energy              =     -90.43638576 Ry
     Harris-Foulkes estimate   =     -90.43638582 Ry
     estimated scf accuracy    <       0.00000007 Ry

     The total energy is the sum of the following terms:

     one-electron contribution =     -57.39953390 Ry
     hartree contribution      =      39.87748642 Ry
     xc contribution           =     -27.21919344 Ry
     ewald contribution        =     -45.69444346 Ry
     smearing contrib. (-TS)   =      -0.00070138 Ry

     convergence has been achieved in  11 iterations

     Forces acting on atoms (cartesian axes, Ry/au):

     atom    1 type  1   force =    -0.00250102    0.00071019    0.00005163
     atom    2 type  1   force =     0.00858543   -0.00003336    0.00000559
     atom    3 type  1   force =    -0.00763460    0.01034504    0.00075870
     atom    4 type  1   force =     0.00832358   -0.01219564    0.00085506
     atom    5 type  1   force =    -0.00759377   -0.00293711   -0.00091843
     atom    6 type  1   force =    -0.01040243   -0.00019980    0.00003884
     atom    7 type  1   force =     0.00252481   -0.00690910    0.00001695
     atom    8 type  1   force =     0.00869800    0.01121978   -0.00080834

     Total force =     0.029946     Total SCF correction =     0.000626


     Computing stress (Cartesian axis) and pressure

          total   stress  (Ry/bohr**3)                   (kbar)     P=       -4.77
  -0.00002335   0.00000158   0.00000018           -3.44        0.23        0.03
   0.00000158  -0.00010231   0.00000020            0.23      -15.05        0.03
   0.00000018   0.00000020   0.00002848            0.03        0.03        4.19


     number of scf cycles    =   7
     number of bfgs steps    =   6

     enthalpy old            =     -90.4341529924 Ry
     enthalpy new            =     -90.4363379628 Ry

     CASE: enthalpy_new < enthalpy_old

     new trust radius        =       0.0565547904 bohr
     new conv_thr            =       0.0000001220 Ry

     new unit-cell volume =    709.18571 a.u.^3 (   105.09048 Ang^3 )
     density =      1.51690 g/cm^3

CELL_PARAMETERS (bohr)
  12.215057851  -0.081026763   0.004073507
   0.145025837   9.518982976   0.002006338
   0.001467632  -0.001582659   6.098598169

ATOMIC_POSITIONS (crystal)
C             0.1660200069        0.7037707308        0.6226947368
C             0.5002313499        0.1998590491        0.6185484390
C             0.5894647848       -0.0467674117        0.6166855703
C             0.1614724160        0.4491864591        0.6218176151
C             0.5897942593        0.4449519414        0.6183638471
C             0.2506220814        0.2027017100        0.6216278208
C             0.5849355740        0.6981774549        0.6174864421
C             0.1612475277        0.9583770664        0.6235135288



     Writing output data file ./pp.save/
     NEW-OLD atomic charge density approx. for the potential
     extrapolated charge   32.27108, renormalised to   32.00000

     total cpu time spent up to now is       97.4 secs

     Self-consistent Calculation

     iteration #  1     ecut=    40.00 Ry     beta= 0.50
     Davidson diagonalization with overlap
     ethr =  1.00E-06,  avg # of iterations =  4.8

     total cpu time spent up to now is      101.6 secs

     total energy              =     -90.43084737 Ry
     Harris-Foulkes estimate   =     -90.05702033 Ry
     estimated scf accuracy    <       0.00501373 Ry

     iteration #  2     ecut=    40.00 Ry     beta= 0.50
     Davidson diagonalization with overlap
     ethr =  1.57E-05,  avg # of iterations =  4.2

     total cpu time spent up to now is      104.8 secs

     total energy              =     -90.43619092 Ry
     Harris-Foulkes estimate   =     -90.44030075 Ry
     estimated scf accuracy    <       0.01427390 Ry

     iteration #  3     ecut=    40.00 Ry     beta= 0.50
     Davidson diagonalization with overlap
     ethr =  1.57E-05,  avg # of iterations =  2.3

     total cpu time spent up to now is      106.9 secs

     total energy              =     -90.43699970 Ry
     Harris-Foulkes estimate   =     -90.43737095 Ry
     estimated scf accuracy    <       0.00311356 Ry

     iteration #  4     ecut=    40.00 Ry     beta= 0.50
     Davidson diagonalization with overlap
     ethr =  9.73E-06,  avg # of iterations =  1.0

     total cpu time spent up to now is      108.4 secs

     total energy              =     -90.43689006 Ry
     Harris-Foulkes estimate   =     -90.43719987 Ry
     estimated scf accuracy    <       0.00199460 Ry

     iteration #  5     ecut=    40.00 Ry     beta= 0.50
     Davidson diagonalization with overlap
     ethr =  6.23E-06,  avg # of iterations =  1.0

     total cpu time spent up to now is      109.8 secs

     total energy              =     -90.43664419 Ry
     Harris-Foulkes estimate   =     -90.43694935 Ry
     estimated scf accuracy    <       0.00079240 Ry

     iteration #  6     ecut=    40.00 Ry     beta= 0.50
     Davidson diagonalization with overlap
     ethr =  2.48E-06,  avg # of iterations =  2.1

     total cpu time spent up to now is      111.9 secs

     total energy              =     -90.43671883 Ry
     Harris-Foulkes estimate   =     -90.43674035 Ry
     estimated scf accuracy    <       0.00004237 Ry

     iteration #  7     ecut=    40.00 Ry     beta= 0.50
     Davidson diagonalization with overlap
     ethr =  1.32E-07,  avg # of iterations =  3.0

     total cpu time spent up to now is      114.5 secs

     total energy              =     -90.43673184 Ry
     Harris-Foulkes estimate   =     -90.43673341 Ry
     estimated scf accuracy    <       0.00000432 Ry

     iteration #  8     ecut=    40.00 Ry     beta= 0.50
     Davidson diagonalization with overlap
     ethr =  1.35E-08,  avg # of iterations =  2.0

     total cpu time spent up to now is      116.5 secs

     total energy              =     -90.43673255 Ry
     Harris-Foulkes estimate   =     -90.43673262 Ry
     estimated scf accuracy    <       0.00000023 Ry

     iteration #  9     ecut=    40.00 Ry     beta= 0.50
     Davidson diagonalization with overlap
     ethr =  7.21E-10,  avg # of iterations =  2.9

     total cpu time spent up to now is      119.2 secs

     End of self-consistent calculation

          k = 0.0000 0.0000 0.0000 (  2395 PWs)   bands (ev):

   -14.9654 -13.3504 -11.5534 -11.0487 -10.1963 -10.0902  -5.8389  -5.4953
    -4.8276  -2.1222  -1.5976  -1.0393  -0.6245   1.5294   2.3908   3.3762
     3.5266   3.9524   4.4232   6.4740

          k =-0.0002-0.0001 0.5312 (  2372 PWs)   bands (ev):

   -14.7756 -13.1785 -11.4140 -10.9174 -10.0864  -9.9759  -5.8016  -5.3543
    -4.7974  -3.3252  -2.0409  -1.4202  -0.4969   1.3288   1.6991   2.4416
     2.9587   3.5210   3.5911   6.8849

          k = 0.0004 0.0002-1.0625 (  2382 PWs)   bands (ev):

   -14.5689 -12.9926 -11.2649 -10.7780  -9.9708  -9.8554  -5.7648  -5.2059
    -4.7677  -4.3292  -2.9099  -1.2254  -0.3723   0.4465   1.4929   1.9516
     2.2402   2.7576   3.6524   7.0544

          k =-0.0045-0.6806-0.0002 (  2382 PWs)   bands (ev):

   -14.4582 -13.4223 -12.6305 -12.3595  -8.3600  -7.6409  -7.5061  -6.0425
    -5.1223  -2.3172  -1.1448  -0.4683  -0.0671   0.0101   0.7065   1.8808
     2.7310   6.4971   7.2618   8.5088

          k =-0.0047-0.6808 0.5311 (  2386 PWs)   bands (ev):

   -14.2824 -13.2449 -12.4723 -12.2058  -8.2792  -7.5872  -7.4265  -5.9779
    -5.0094  -2.3392  -2.1087  -1.6228  -1.0374  -0.3034   0.1349   2.0367
     2.9746   6.2074   6.7454   8.6180

          k =-0.0042-0.6804-1.0627 (  2396 PWs)   bands (ev):

   -14.0922 -13.0525 -12.3022 -12.0412  -8.1956  -7.5325  -7.3448  -5.9118
    -4.8909  -3.3252  -2.5880  -1.8793  -1.8698  -1.1618   0.2510   2.1892
     3.2410   5.3668   6.9609   7.9794

          k =-0.5304 0.0081 0.0001 (  2378 PWs)   bands (ev):

   -14.9441 -13.4036 -11.5140 -11.0281 -10.2253 -10.1216  -5.8234  -5.3476
    -4.8332  -2.1046  -1.3009  -1.2323  -1.0681   1.9895   2.4113   2.7594
     3.5532   3.9224   4.4057   5.9194

          k =-0.5306 0.0080 0.5314 (  2382 PWs)   bands (ev):

   -14.7560 -13.2275 -11.3772 -10.8984 -10.1135 -10.0050  -5.7879  -5.2251
    -4.8030  -3.2874  -2.1178  -1.0921  -1.0765   1.3787   2.1109   2.5001
[...]
C             0.5616236951        0.6986547751        0.6160951409
C             0.1822931771        0.9529310775        0.6293724153



     Writing output data file ./pp.save/
     NEW-OLD atomic charge density approx. for the potential
     extrapolated charge   32.02468, renormalised to   32.00000

     total cpu time spent up to now is     2378.7 secs

     Self-consistent Calculation

     iteration #  1     ecut=    40.00 Ry     beta= 0.50
     Davidson diagonalization with overlap
     ethr =  1.00E-06,  avg # of iterations =  6.3

     total cpu time spent up to now is     2404.6 secs

     total energy              =     -90.46032348 Ry
     Harris-Foulkes estimate   =     -90.42001124 Ry
     estimated scf accuracy    <       0.00048700 Ry

     iteration #  2     ecut=    40.00 Ry     beta= 0.50
     Davidson diagonalization with overlap
     ethr =  1.52E-06,  avg # of iterations =  2.2

     total cpu time spent up to now is     2416.7 secs

     total energy              =     -90.46038244 Ry
     Harris-Foulkes estimate   =     -90.46046807 Ry
     estimated scf accuracy    <       0.00021026 Ry

     iteration #  3     ecut=    40.00 Ry     beta= 0.50
     Davidson diagonalization with overlap
     ethr =  6.57E-07,  avg # of iterations =  2.0

     total cpu time spent up to now is     2427.5 secs

     total energy              =     -90.46035954 Ry
     Harris-Foulkes estimate   =     -90.46045263 Ry
     estimated scf accuracy    <       0.00039289 Ry

     iteration #  4     ecut=    40.00 Ry     beta= 0.50
     Davidson diagonalization with overlap
     ethr =  6.57E-07,  avg # of iterations =  1.1

     total cpu time spent up to now is     2435.7 secs

     total energy              =     -90.46038157 Ry
     Harris-Foulkes estimate   =     -90.46048163 Ry
     estimated scf accuracy    <       0.00092800 Ry

     iteration #  5     ecut=    40.00 Ry     beta= 0.50
     Davidson diagonalization with overlap
     ethr =  6.57E-07,  avg # of iterations =  1.0

     total cpu time spent up to now is     2443.8 secs

     total energy              =     -90.46043198 Ry
     Harris-Foulkes estimate   =     -90.46043220 Ry
     estimated scf accuracy    <       0.00000256 Ry

     iteration #  6     ecut=    40.00 Ry     beta= 0.50
     Davidson diagonalization with overlap
     ethr =  8.00E-09,  avg # of iterations =  3.6

     total cpu time spent up to now is     2458.9 secs

     total energy              =     -90.46043267 Ry
     Harris-Foulkes estimate   =     -90.46043262 Ry
     estimated scf accuracy    <       0.00000041 Ry

     iteration #  7     ecut=    40.00 Ry     beta= 0.50
     Davidson diagonalization with overlap
     ethr =  1.27E-09,  avg # of iterations =  2.0

     total cpu time spent up to now is     2469.9 secs

     total energy              =     -90.46043274 Ry
     Harris-Foulkes estimate   =     -90.46043274 Ry
     estimated scf accuracy    <       0.00000006 Ry

     iteration #  8     ecut=    40.00 Ry     beta= 0.50
     Davidson diagonalization with overlap
     ethr =  2.03E-10,  avg # of iterations =  2.2

     total cpu time spent up to now is     2481.4 secs

     End of self-consistent calculation

          k = 0.0000 0.0000 0.0000 (  2395 PWs)   bands (ev):

   -14.7552 -14.0053 -11.5821 -11.5742 -11.0438 -11.0398  -6.9102  -6.7679
    -4.5187  -1.8779  -1.8099  -1.4293   0.6296   0.8553   3.0857   3.3012
     3.3415   3.3824   3.6829   3.7036

          k =-0.0004-0.0004 0.5661 (  2372 PWs)   bands (ev):

   -14.4582 -13.7323 -11.3752 -11.3681 -10.8572 -10.8528  -6.8641  -6.7258
    -4.2275  -3.3784  -2.8052  -1.6883   0.8910   1.1305   1.8066   1.8385
     2.3470   2.3859   3.2862   3.5555

          k = 0.0008 0.0007-1.1321 (  2382 PWs)   bands (ev):

   -14.1186 -13.4232 -11.1499 -11.1439 -10.6559 -10.6513  -6.8178  -6.6835
    -4.6836  -3.9843  -3.9007  -1.4940   0.6129   0.6587   1.1982   1.2857
     1.3174   1.4358   3.4581   3.7330

          k =-0.0023-0.6643 0.0001 (  2382 PWs)   bands (ev):

   -13.9107 -13.9082 -13.2152 -13.2140  -8.5601  -8.5573  -8.2636  -8.2612
    -3.1903  -3.1861  -0.5818  -0.5767  -0.5049  -0.5031  -0.1305  -0.1286
     6.8245   6.8330   8.1820   8.1895

          k =-0.0028-0.6647 0.5661 (  2386 PWs)   bands (ev):

   -13.6368 -13.6342 -12.9646 -12.9631  -8.4520  -8.4491  -8.1673  -8.1647
    -2.9038  -2.8992  -2.0640  -2.0594  -1.4978  -1.4940  -0.3932  -0.3881
     7.0835   7.0921   7.8506   7.8604

          k =-0.0015-0.6636-1.1320 (  2396 PWs)   bands (ev):

   -13.3277 -13.3253 -12.6845 -12.6832  -8.3396  -8.3368  -8.0674  -8.0649
    -3.3407  -3.3384  -2.6523  -2.6477  -2.5791  -2.5772  -0.2020  -0.1971
     6.9131   6.9165   7.3709   7.3781

          k =-0.4893 0.0088 0.0003 (  2378 PWs)   bands (ev):

   -14.7420 -14.0241 -11.5745 -11.5663 -11.0533 -11.0493  -6.9093  -6.7686
    -4.3583  -2.1504  -1.8046  -1.4363   0.7433   1.0114   2.8185   3.1488
     3.3065   3.3468   3.6773   3.6982

          k =-0.4897 0.0085 0.5664 (  2382 PWs)   bands (ev):

   -14.4464 -13.7488 -11.3685 -11.3611 -10.8658 -10.8613  -6.8636  -6.7267
    -4.0922  -3.3580  -2.8322  -1.9073   0.9828   1.2625   1.8295   1.8603
     2.3112   2.3615   3.0834   3.3711

          k =-0.4884 0.0095-1.1318 (  2400 PWs)   bands (ev):

   -14.1087 -13.4369 -11.1444 -11.1382 -10.6630 -10.6583  -6.8175  -6.6842
    -4.6594  -4.0167  -3.7933  -1.6625   0.6327   0.6826   1.2555   1.2682
     1.2969   1.5423   3.2920   3.5920

          k =-0.4916-0.6555 0.0004 (  2398 PWs)   bands (ev):

   -13.8990 -13.8965 -13.2313 -13.2301  -8.5571  -8.5543  -8.2670  -8.2647
    -3.0366  -3.0315  -0.8510  -0.8449  -0.5004  -0.4982  -0.1372  -0.1353
     6.9634   6.9725   8.6750   8.6919

          k =-0.4920-0.6559 0.5665 (  2382 PWs)   bands (ev):

   -13.6264 -13.6238 -12.9788 -12.9774  -8.4493  -8.4464  -8.1701  -8.1676
    -2.7746  -2.7692  -2.0432  -2.0386  -1.5256  -1.5216  -0.6078  -0.6020
     7.1696   7.1793   7.8867   7.8960

          k =-0.4908-0.6548-1.1317 (  2384 PWs)   bands (ev):

   -13.3189 -13.3165 -12.6962 -12.6950  -8.3373  -8.3345  -8.0700  -8.0676
    -3.3171  -3.3146  -2.6821  -2.6798  -2.4768  -2.4732  -0.3684  -0.3627
     6.9334   6.9366   7.4336   7.4466

     the Fermi energy is     2.0622 ev

!    total energy              =     -90.46043274 Ry
     Harris-Foulkes estimate   =     -90.46043275 Ry
     estimated scf accuracy    <          8.8E-09 Ry

     The total energy is the sum of the following terms:

     one-electron contribution =     -66.76922782 Ry
     hartree contribution      =      43.99919648 Ry
     xc contribution           =     -27.23210640 Ry
     ewald contribution        =     -40.45923915 Ry
     smearing contrib. (-TS)   =       0.00094415 Ry

     convergence has been achieved in   8 iterations

     Forces acting on atoms (cartesian axes, Ry/au):

     atom    1 type  1   force =    -0.00324495   -0.00049628   -0.00032944
     atom    2 type  1   force =     0.00353429   -0.00010649   -0.00002472
     atom    3 type  1   force =    -0.00416581    0.00125598    0.00377572
     atom    4 type  1   force =     0.00441621   -0.00027166    0.00393903
     atom    5 type  1   force =    -0.00543819   -0.00024830   -0.00382457
     atom    6 type  1   force =    -0.00324822    0.00075069    0.00002497
     atom    7 type  1   force =     0.00329404   -0.00053523    0.00011739
     atom    8 type  1   force =     0.00485263   -0.00034872   -0.00367838

     Total force =     0.013978     Total SCF correction =     0.000209


     Computing stress (Cartesian axis) and pressure

          total   stress  (Ry/bohr**3)                   (kbar)     P=        3.70
  -0.00003093   0.00000216   0.00000055           -4.55        0.32        0.08
   0.00000216   0.00002048   0.00000181            0.32        3.01        0.27
   0.00000055   0.00000181   0.00008598            0.08        0.27       12.65


     number of scf cycles    =  44
     number of bfgs steps    =  35

     enthalpy old            =     -90.4592897223 Ry
     enthalpy new            =     -90.4603824898 Ry

     CASE: enthalpy_new < enthalpy_old

     new trust radius        =       0.0684966984 bohr
     new conv_thr            =       0.0000000544 Ry

     new unit-cell volume =    744.91605 a.u.^3 (   110.38517 Ang^3 )
     density =      1.44414 g/cm^3

CELL_PARAMETERS (bohr)
  13.181956651  -0.043781320   0.011102133
   0.176888770   9.749793550   0.008368244
   0.004398626   0.002140786   5.795705082

ATOMIC_POSITIONS (crystal)
C             0.1889978395        0.7040968477        0.6235819228
C             0.5656439198        0.1983327060        0.6167708492
C             0.5656380452       -0.0499707899        0.6135241126
C             0.1849474642        0.4528441563        0.6208847020
C             0.5661848705        0.4496040141        0.6192940814
C             0.1853647106        0.2039359550        0.6238216109
C             0.5619674034        0.6988109535        0.6161688411
C             0.1850437467        0.9526031574        0.6266918800



     Writing output data file ./pp.save/
     NEW-OLD atomic charge density approx. for the potential
     extrapolated charge   32.24235, renormalised to   32.00000

     total cpu time spent up to now is     2482.0 secs

     Self-consistent Calculation

     iteration #  1     ecut=    40.00 Ry     beta= 0.50
     Davidson diagonalization with overlap
     ethr =  1.00E-06,  avg # of iterations =  7.5

     total cpu time spent up to now is     2512.9 secs

     total energy              =     -90.45840168 Ry
     Harris-Foulkes estimate   =     -90.06228650 Ry
     estimated scf accuracy    <       0.00236334 Ry

     iteration #  2     ecut=    40.00 Ry     beta= 0.50
     Davidson diagonalization with overlap
     ethr =  7.39E-06,  avg # of iterations =  3.9

     total cpu time spent up to now is     2530.6 secs

     total energy              =     -90.46179484 Ry
     Harris-Foulkes estimate   =     -90.46282311 Ry
     estimated scf accuracy    <       0.00306444 Ry

     iteration #  3     ecut=    40.00 Ry     beta= 0.50
     Davidson diagonalization with overlap
     ethr =  7.39E-06,  avg # of iterations =  2.4

     total cpu time spent up to now is     2542.4 secs

     total energy              =     -90.46161567 Ry
     Harris-Foulkes estimate   =     -90.46196651 Ry
     estimated scf accuracy    <       0.00078837 Ry

     iteration #  4     ecut=    40.00 Ry     beta= 0.50
     Davidson diagonalization with overlap
     ethr =  2.46E-06,  avg # of iterations =  2.4

     total cpu time spent up to now is     2555.1 secs

     total energy              =     -90.46162921 Ry
     Harris-Foulkes estimate   =     -90.46173665 Ry
     estimated scf accuracy    <       0.00057059 Ry

     iteration #  5     ecut=    40.00 Ry     beta= 0.50
     Davidson diagonalization with overlap
     ethr =  1.78E-06,  avg # of iterations =  1.0

     total cpu time spent up to now is     2563.5 secs

     total energy              =     -90.46166950 Ry
     Harris-Foulkes estimate   =     -90.46170960 Ry
     estimated scf accuracy    <       0.00027865 Ry

     iteration #  6     ecut=    40.00 Ry     beta= 0.50
     Davidson diagonalization with overlap
     ethr =  8.71E-07,  avg # of iterations =  1.0

     total cpu time spent up to now is     2571.9 secs

     total energy              =     -90.46168978 Ry
     Harris-Foulkes estimate   =     -90.46169099 Ry
     estimated scf accuracy    <       0.00000442 Ry

     iteration #  7     ecut=    40.00 Ry     beta= 0.50
     Davidson diagonalization with overlap
     ethr =  1.38E-08,  avg # of iterations =  2.1

     total cpu time spent up to now is     2583.9 secs

     total energy              =     -90.46169069 Ry
     Harris-Foulkes estimate   =     -90.46169084 Ry
     estimated scf accuracy    <       0.00000052 Ry

     iteration #  8     ecut=    40.00 Ry     beta= 0.50
     Davidson diagonalization with overlap
     ethr =  1.64E-09,  avg # of iterations =  2.0

     total cpu time spent up to now is     2596.2 secs

     End of self-consistent calculation

          k = 0.0000 0.0000 0.0000 (  2395 PWs)   bands (ev):

   -14.8075 -14.0339 -11.6406 -11.6358 -11.0851 -11.0813  -6.9990  -6.8510
    -4.5843  -1.9827  -1.8994  -1.5808   0.6561   0.7309   3.1550   3.1675
     3.1828   3.2707   3.5574   3.5628

          k =-0.0005-0.0005 0.5590 (  2372 PWs)   bands (ev):

   -14.5335 -13.7832 -11.4518 -11.4468 -10.9153 -10.9111  -6.9578  -6.8135
    -4.3142  -3.4593  -2.8672  -1.7272   0.9039   0.9828   1.7437   1.7606
     2.3136   2.3275   3.3525   3.4360

          k = 0.0009 0.0009-1.1180 (  2382 PWs)   bands (ev):

   -14.2234 -13.5021 -11.2471 -11.2427 -10.7329 -10.7288  -6.9165  -6.7759
    -4.6926  -4.0170  -3.9700  -1.5505   0.6227   0.6395   1.1847   1.2616
     1.3151   1.3219   3.5131   3.5976

          k =-0.0022-0.6646 0.0002 (  2382 PWs)   bands (ev):

   -13.9745 -13.9518 -13.2525 -13.2397  -8.6392  -8.6266  -8.3330  -8.3191
    -3.2732  -3.2274  -0.6825  -0.6649  -0.6278  -0.5688  -0.2853  -0.2705
     6.8038   6.9301   8.0419   8.0486

          k =-0.0027-0.6650 0.5593 (  2386 PWs)   bands (ev):

   -13.7222 -13.6996 -13.0228 -13.0099  -8.5414  -8.5286  -8.2463  -8.2323
    -3.0083  -2.9604  -2.1494  -2.1297  -1.5630  -1.5472  -0.4567  -0.3980
     7.0138   7.1357   7.8131   7.8389

          k =-0.0013-0.6636-1.1178 (  2396 PWs)   bands (ev):

   -13.4402 -13.4177 -12.7685 -12.7555  -8.4401  -8.4272  -8.1567  -8.1426
    -3.3576  -3.3377  -2.7156  -2.6680  -2.6390  -2.6281  -0.2831  -0.2243
     6.9162   6.9443   7.2769   7.3846

          k =-0.4915 0.0089 0.0004 (  2378 PWs)   bands (ev):

   -14.7939 -14.0534 -11.6327 -11.6277 -11.0951 -11.0912  -6.9981  -6.8517
    -4.4212  -2.1780  -1.9754  -1.5885   0.7855   0.8745   2.9190   3.0183
     3.1607   3.1769   3.5514   3.5566

          k =-0.4920 0.0084 0.5594 (  2382 PWs)   bands (ev):

   -14.5213 -13.8004 -11.4448 -11.4396 -10.9242 -10.9199  -6.9572  -6.8144
    -4.1757  -3.4382  -2.8952  -1.9517   1.0108   1.1031   1.7667   1.7841
     2.2834   2.2988   3.1492   3.2369

          k =-0.4906 0.0099-1.1177 (  2400 PWs)   bands (ev):

   -14.2130 -13.5165 -11.2414 -11.2367 -10.7404 -10.7362  -6.9162  -6.7766
    -4.6674  -4.0091  -3.9009  -1.7257   0.6444   0.6632   1.2678   1.2808
     1.2974   1.3652   3.3494   3.4402

          k =-0.4937-0.6556 0.0006 (  2398 PWs)   bands (ev):

   -13.9627 -13.9395 -13.2694 -13.2562  -8.6362  -8.6235  -8.3366  -8.3226
    -3.1205  -3.0665  -0.9065  -0.8399  -0.6760  -0.6579  -0.2927  -0.2778
     6.8974   7.0223   8.7638   8.7960

          k =-0.4942-0.6561 0.5596 (  2382 PWs)   bands (ev):

   -13.7118 -13.6887 -13.0378 -13.0245  -8.5387  -8.5258  -8.2493  -8.2352
    -2.8794  -2.8239  -2.1284  -2.1082  -1.5922  -1.5753  -0.6791  -0.6149
     7.0806   7.2070   7.8453   7.8702

          k =-0.4928-0.6547-1.1174 (  2384 PWs)   bands (ev):

   -13.4313 -13.4084 -12.7809 -12.7678  -8.4377  -8.4248  -8.1596  -8.1454
    -3.3334  -3.3124  -2.6806  -2.6650  -2.6053  -2.5513  -0.4585  -0.3938
     6.9355   6.9632   7.3379   7.4520

     the Fermi energy is     1.9972 ev

!    total energy              =     -90.46169077 Ry
     Harris-Foulkes estimate   =     -90.46169080 Ry
     estimated scf accuracy    <       0.00000004 Ry

     The total energy is the sum of the following terms:

     one-electron contribution =     -67.10796396 Ry
     hartree contribution      =      44.09264118 Ry
     xc contribution           =     -27.23937546 Ry
     ewald contribution        =     -40.20812443 Ry
     smearing contrib. (-TS)   =       0.00113191 Ry

     convergence has been achieved in   8 iterations

     Forces acting on atoms (cartesian axes, Ry/au):

     atom    1 type  1   force =    -0.00294160   -0.00429704   -0.00003388
     atom    2 type  1   force =    -0.00001539    0.00588386   -0.00009199
     atom    3 type  1   force =    -0.00039370   -0.00440649    0.00189271
     atom    4 type  1   force =     0.00087421   -0.00378234    0.00189901
     atom    5 type  1   force =    -0.00109926    0.00443018   -0.00190789
     atom    6 type  1   force =    -0.00004383    0.00230477    0.00005422
     atom    7 type  1   force =     0.00290379   -0.00560233    0.00011476
     atom    8 type  1   force =     0.00071577    0.00546939   -0.00192694

     Total force =     0.014399     Total SCF correction =     0.000462


     Computing stress (Cartesian axis) and pressure

          total   stress  (Ry/bohr**3)                   (kbar)     P=        5.15
  -0.00000230   0.00000313   0.00000031           -0.34        0.46        0.05
   0.00000313   0.00009231   0.00000286            0.46       13.58        0.42
   0.00000031   0.00000286   0.00001506            0.05        0.42        2.22


     number of scf cycles    =  45
     number of bfgs steps    =  36

     enthalpy old            =     -90.4603824898 Ry
     enthalpy new            =     -90.4616401308 Ry

     CASE: enthalpy_new < enthalpy_old

     new trust radius        =       0.0242065068 bohr
     new conv_thr            =       0.0000000588 Ry

     new unit-cell volume =    747.66979 a.u.^3 (   110.79323 Ang^3 )
     density =      1.43882 g/cm^3

CELL_PARAMETERS (bohr)
  13.166576485  -0.041784047   0.011330799
   0.178171078   9.754045346   0.009318929
   0.004499419   0.002727514   5.821400789

ATOMIC_POSITIONS (crystal)
C             0.1879738421        0.7040818891        0.6235140993
C             0.5653181069        0.1986183708        0.6167575453
C             0.5651301318       -0.0502702248        0.6149663695
C             0.1854917240        0.4525195804        0.6223758136
C             0.5654711770        0.4499209096        0.6178260366
C             0.1857321431        0.2038719373        0.6238205401
C             0.5630031727        0.6985874922        0.6162140593
C             0.1856677025        0.9529270455        0.6252635364



     Writing output data file ./pp.save/
     NEW-OLD atomic charge density approx. for the potential
     extrapolated charge   32.11786, renormalised to   32.00000

     total cpu time spent up to now is     2596.7 secs

     Self-consistent Calculation

     iteration #  1     ecut=    40.00 Ry     beta= 0.50
     Davidson diagonalization with overlap
     c_bands:  1 eigenvalues not converged
     ethr =  1.00E-06,  avg # of iterations =  6.3

     total cpu time spent up to now is     2623.9 secs

     total energy              =     -90.46102338 Ry
     Harris-Foulkes estimate   =     -90.26731210 Ry
     estimated scf accuracy    <       0.00063784 Ry

     iteration #  2     ecut=    40.00 Ry     beta= 0.50
     Davidson diagonalization with overlap
     ethr =  1.99E-06,  avg # of iterations =  4.8

     total cpu time spent up to now is     2643.7 secs

     total energy              =     -90.46187893 Ry
     Harris-Foulkes estimate   =     -90.46213418 Ry
     estimated scf accuracy    <       0.00072301 Ry

     iteration #  3     ecut=    40.00 Ry     beta= 0.50
     Davidson diagonalization with overlap
     ethr =  1.99E-06,  avg # of iterations =  2.4

     total cpu time spent up to now is     2655.7 secs

     total energy              =     -90.46189798 Ry
     Harris-Foulkes estimate   =     -90.46193053 Ry
     estimated scf accuracy    <       0.00022921 Ry

     iteration #  4     ecut=    40.00 Ry     beta= 0.50
     Davidson diagonalization with overlap
     ethr =  7.16E-07,  avg # of iterations =  1.0

     total cpu time spent up to now is     2664.4 secs

     total energy              =     -90.46185771 Ry
     Harris-Foulkes estimate   =     -90.46191854 Ry
     estimated scf accuracy    <       0.00023265 Ry

     iteration #  5     ecut=    40.00 Ry     beta= 0.50
     Davidson diagonalization with overlap
