
     Program PWSCF v.6.5 starts on  8Jul2022 at  8: 0:57 

     This program is part of the open-source Quantum ESPRESSO suite
     for quantum simulation of materials; please cite
         "P. Giannozzi et al., J. Phys.:Condens. Matter 21 395502 (2009);
         "P. Giannozzi et al., J. Phys.:Condens. Matter 29 465901 (2017);
          URL http://www.quantum-espresso.org", 
     in publications or presentations arising from this work. More details at
     http://www.quantum-espresso.org/quote

     Parallel version (MPI), running on    96 processors

     MPI processes distributed on     2 nodes
     R & G space division:  proc/nbgrp/npool/nimage =      96
     Waiting for input...
     Reading input from standard input
     Message from routine read_cards :
     DEPRECATED: no units specified in CELL_PARAMETERS card

     Current dimensions of program PWSCF are:
     Max number of different atomic species (ntypx) = 10
     Max number of k-points (npk) =  40000
     Max angular momentum in pseudopotentials (lmaxx) =  3

     Subspace diagonalization in iterative solution of the eigenvalue problem:
     one sub-group per band group will be used
     scalapack distributed-memory algorithm (size of sub-group:  9*  9 procs)

 
     Parallelization info
     --------------------
     sticks:   dense  smooth     PW     G-vecs:    dense   smooth      PW
     Min          15      15      4                  191      191      32
     Max          16      16      5                  194      194      35
     Sum        1459    1459    473                18377    18377    3287
 


     bravais-lattice index     =            0
     lattice parameter (alat)  =      13.7322  a.u.
     unit-cell volume          =     537.2418 (a.u.)^3
     number of atoms/cell      =            8
     number of atomic types    =            1
     number of electrons       =        32.00
     number of Kohn-Sham states=           20
     kinetic-energy cutoff     =      40.0000  Ry
     charge density cutoff     =     160.0000  Ry
     convergence threshold     =      1.0E-06
     mixing beta               =       0.5000
     number of iterations used =            8  plain     mixing
     Exchange-correlation=  SLA  PW   PBE  PBE
                           (   1   4   3   4   0   0   0)
     nstep                     =          250


     celldm(1)=  13.732221  celldm(2)=   0.000000  celldm(3)=   0.000000
     celldm(4)=   0.000000  celldm(5)=   0.000000  celldm(6)=   0.000000

     crystal axes: (cart. coord. in units of alat)
               a(1) = (   0.999955  -0.009510   0.000175 )  
               a(2) = (   0.006132   0.610433   0.000408 )  
               a(3) = (   0.000117   0.000066   0.339850 )  

     reciprocal axes: (cart. coord. in units 2 pi/alat)
               b(1) = (  0.999950 -0.010044 -0.000341 )  
               b(2) = (  0.015579  1.638025 -0.000321 )  
               b(3) = ( -0.000533 -0.001960  2.942472 )  


     PseudoPot. # 1 for C  read from file:
     ./C.pbe-van_bm.upf
     MD5 check sum: 1a69bf6b8db32088f5b2163dbdb77a27
     Pseudo is Ultrasoft, Zval =  4.0
     Generated by new atomic code, or converted to UPF format
     Using radial grid of  721 points,  4 beta functions with: 
                l(1) =   0
                l(2) =   0
                l(3) =   1
                l(4) =   1
     Q(r) pseudized with  8 coefficients,  rinner =    0.800   0.800   0.800


     atomic species   valence    mass     pseudopotential
        C              4.00    12.00000     C ( 1.00)

     No symmetry found



   Cartesian axes

     site n.     atom                  positions (alat units)
         1           C   tau(   1) = (   0.3023393   0.3291477   0.1942534  )
         2           C   tau(   2) = (   0.2015854   0.3093496   0.3642202  )
         3           C   tau(   3) = (   0.7251565   0.1702461   0.0239147  )
         4           C   tau(   4) = (   0.9153767   0.0638574   0.0243615  )
         5           C   tau(   5) = (   0.4885767   0.3257714   0.1941724  )
         6           C   tau(   6) = (   0.6498734   0.2255831   0.1938348  )
         7           C   tau(   7) = (   0.0298724   0.2339455   0.3643445  )
         8           C   tau(   8) = (   0.8933315  -0.0437649   0.1942945  )

     number of k points=    12  Marzari-Vanderbilt smearing, width (Ry)=  0.0200
                       cart. coord. in units 2pi/alat
        k(    1) = (   0.0000000   0.0000000   0.0000000), wk =   0.1250000
        k(    2) = (  -0.0001332  -0.0004901   0.7356181), wk =   0.2500000
        k(    3) = (   0.0002665   0.0009802  -1.4712361), wk =   0.1250000
        k(    4) = (  -0.0077896  -0.8190127   0.0001606), wk =   0.1250000
        k(    5) = (  -0.0079228  -0.8195028   0.7357787), wk =   0.2500000
        k(    6) = (  -0.0075231  -0.8180325  -1.4710755), wk =   0.1250000
        k(    7) = (  -0.4999749   0.0050219   0.0001704), wk =   0.1250000
        k(    8) = (  -0.5001081   0.0045319   0.7357885), wk =   0.2500000
        k(    9) = (  -0.4997084   0.0060021  -1.4710657), wk =   0.1250000
        k(   10) = (  -0.5077645  -0.8139907   0.0003311), wk =   0.1250000
        k(   11) = (  -0.5078977  -0.8144808   0.7359491), wk =   0.2500000
        k(   12) = (  -0.5074980  -0.8130105  -1.4709051), wk =   0.1250000

     Dense  grid:    18377 G-vectors     FFT dimensions: (  60,  36,  20)

     Estimated max dynamical RAM per process >       2.44 MB

     Estimated total dynamical RAM >     234.63 MB

     Initial potential from superposition of free atoms

     starting charge   31.99968, renormalised to   32.00000
     Starting wfcs are   32 randomized atomic wfcs

     total cpu time spent up to now is        0.6 secs

     Self-consistent Calculation

     iteration #  1     ecut=    40.00 Ry     beta= 0.50
     Davidson diagonalization with overlap
     ethr =  1.00E-02,  avg # of iterations =  2.0

     total cpu time spent up to now is        1.2 secs

     total energy              =     -90.28939289 Ry
     Harris-Foulkes estimate   =     -90.66119583 Ry
     estimated scf accuracy    <       0.74063475 Ry

     iteration #  2     ecut=    40.00 Ry     beta= 0.50
     Davidson diagonalization with overlap
     ethr =  2.31E-03,  avg # of iterations =  2.0

     total cpu time spent up to now is        1.7 secs

     total energy              =     -90.11475160 Ry
     Harris-Foulkes estimate   =     -90.52419716 Ry
     estimated scf accuracy    <       1.29760100 Ry

     iteration #  3     ecut=    40.00 Ry     beta= 0.50
     Davidson diagonalization with overlap
     ethr =  2.31E-03,  avg # of iterations =  2.0

     total cpu time spent up to now is        2.3 secs

     total energy              =     -90.28146054 Ry
     Harris-Foulkes estimate   =     -90.49345594 Ry
     estimated scf accuracy    <       1.09158418 Ry

     iteration #  4     ecut=    40.00 Ry     beta= 0.50
     Davidson diagonalization with overlap
     ethr =  2.31E-03,  avg # of iterations =  1.1

     total cpu time spent up to now is        2.7 secs

     total energy              =     -90.36549221 Ry
     Harris-Foulkes estimate   =     -90.41369723 Ry
     estimated scf accuracy    <       0.17850620 Ry

     iteration #  5     ecut=    40.00 Ry     beta= 0.50
     Davidson diagonalization with overlap
     ethr =  5.58E-04,  avg # of iterations =  1.8

     total cpu time spent up to now is        3.1 secs

     total energy              =     -90.38815946 Ry
     Harris-Foulkes estimate   =     -90.38959092 Ry
     estimated scf accuracy    <       0.00683761 Ry

     iteration #  6     ecut=    40.00 Ry     beta= 0.50
     Davidson diagonalization with overlap
     ethr =  2.14E-05,  avg # of iterations =  3.6

     total cpu time spent up to now is        3.9 secs

     total energy              =     -90.38913986 Ry
     Harris-Foulkes estimate   =     -90.38932712 Ry
     estimated scf accuracy    <       0.00121849 Ry

     iteration #  7     ecut=    40.00 Ry     beta= 0.50
     Davidson diagonalization with overlap
     ethr =  3.81E-06,  avg # of iterations =  3.1

     total cpu time spent up to now is        4.6 secs

     total energy              =     -90.38915820 Ry
     Harris-Foulkes estimate   =     -90.38932131 Ry
     estimated scf accuracy    <       0.00053386 Ry

     iteration #  8     ecut=    40.00 Ry     beta= 0.50
     Davidson diagonalization with overlap
     ethr =  1.67E-06,  avg # of iterations =  2.2

     total cpu time spent up to now is        5.2 secs

     total energy              =     -90.38921797 Ry
     Harris-Foulkes estimate   =     -90.38930825 Ry
     estimated scf accuracy    <       0.00037070 Ry

     iteration #  9     ecut=    40.00 Ry     beta= 0.50
     Davidson diagonalization with overlap
     ethr =  1.16E-06,  avg # of iterations =  1.0

     total cpu time spent up to now is        5.6 secs

     total energy              =     -90.38926194 Ry
     Harris-Foulkes estimate   =     -90.38926662 Ry
     estimated scf accuracy    <       0.00001938 Ry

     iteration # 10     ecut=    40.00 Ry     beta= 0.50
     Davidson diagonalization with overlap
     ethr =  6.06E-08,  avg # of iterations =  2.6

     total cpu time spent up to now is        6.2 secs

     total energy              =     -90.38926550 Ry
     Harris-Foulkes estimate   =     -90.38926639 Ry
     estimated scf accuracy    <       0.00000271 Ry

     iteration # 11     ecut=    40.00 Ry     beta= 0.50
     Davidson diagonalization with overlap
     ethr =  8.46E-09,  avg # of iterations =  2.0

     total cpu time spent up to now is        6.8 secs

     End of self-consistent calculation

          k = 0.0000 0.0000 0.0000 (  2333 PWs)   bands (ev):

   -14.1760 -12.5647 -11.8024  -8.3561  -6.3972  -5.3235  -1.7217  -1.3134
    -0.6383  -0.5587   0.5774   0.6077   1.4011   2.2332   4.1819   6.6269
     7.5667   8.0389   9.8075  10.3512

          k =-0.0001-0.0005 0.7356 (  2290 PWs)   bands (ev):

   -13.0818 -11.5030 -10.8007  -7.5910  -5.7274  -5.1250  -3.7261  -2.6805
    -2.2177  -1.6208  -0.5149  -0.0375   1.8333   2.8929   4.3253   4.6377
     6.0666   6.8218   8.1999   9.6612

          k = 0.0003 0.0010-1.4712 (  2306 PWs)   bands (ev):

   -10.4729  -9.7468  -8.5690  -8.3766  -7.3487  -7.1257  -4.5874  -4.4657
    -2.7020  -2.6026  -1.1053   2.3777   2.5777   3.0257   3.8029   4.4694
     5.4306   5.5014   5.9180   8.1862

          k =-0.0078-0.8190 0.0002 (  2280 PWs)   bands (ev):

   -14.0414 -12.6173 -11.7437  -8.6859  -6.5149  -5.3551  -1.8597  -1.6584
    -0.5321  -0.3053   0.4921   0.6086   1.3981   3.3237   4.5454   6.6326
     7.1939   7.9623   9.7572  10.8374

          k =-0.0079-0.8195 0.7358 (  2298 PWs)   bands (ev):

   -12.9557 -11.5534 -10.7444  -7.8701  -5.8169  -5.0833  -3.7454  -2.6518
    -2.2652  -1.6716  -0.9601   0.2106   1.6632   3.7630   4.0191   5.0170
     6.2304   6.7929   8.0458   9.8484

          k =-0.0075-0.8180-1.4711 (  2286 PWs)   bands (ev):

   -10.3726  -9.6835  -8.5978  -8.3835  -7.2955  -7.1522  -4.7851  -4.6076
    -2.6222  -2.5684  -1.3289   1.5616   2.3543   3.2376   3.9249   4.9300
     5.4043   5.6767   6.2207   8.4292

          k =-0.5000 0.0050 0.0002 (  2302 PWs)   bands (ev):

   -14.0692 -13.0623 -11.0830  -9.0018  -6.3544  -4.6348  -2.5146  -0.7072
    -0.6625  -0.5117  -0.2129   0.4511   1.5286   3.2464   4.8021   5.5259
     7.0119   8.0764   9.6660  10.3961

          k =-0.5001 0.0045 0.7358 (  2304 PWs)   bands (ev):

   -12.9750 -12.0038 -10.0736  -8.2029  -5.9021  -4.0717  -3.8443  -3.0210
    -2.4525  -1.8012  -0.1947   0.4247   0.6654   3.8911   4.3953   5.0686
     5.9871   6.4128   7.0024  10.4992

          k =-0.4997 0.0060-1.4711 (  2298 PWs)   bands (ev):

   -10.4450  -9.6765  -8.7410  -8.6583  -6.9734  -6.8073  -4.7999  -4.7674
    -2.8688  -2.4488  -0.8289   2.3327   2.6646   2.9882   3.8234   4.2874
     5.4262   5.4699   5.9839   8.0928

          k =-0.5078-0.8140 0.0003 (  2276 PWs)   bands (ev):

   -13.9466 -13.0016 -11.2460  -9.0289  -6.6306  -4.7992  -2.6325  -1.1525
    -0.4921  -0.4027   0.2592   0.4741   1.5033   4.4022   4.6775   5.7976
     6.8165   8.0208   9.6020  10.4576

          k =-0.5079-0.8145 0.7359 (  2283 PWs)   bands (ev):

   -12.8600 -11.9479 -10.2226  -8.2283  -6.0629  -4.1749  -3.8589  -2.9608
    -2.5580  -1.8240  -0.5425   0.1908   1.3015   4.0052   4.6829   5.0688
     6.2445   6.6422   6.9728  10.2424

          k =-0.5075-0.8130-1.4709 (  2296 PWs)   bands (ev):

   -10.3465  -9.6360  -8.7443  -8.5635  -7.0876  -6.8943  -4.9413  -4.7133
    -2.8111  -2.5450  -1.0416   1.5271   2.4482   3.0624   4.0785   4.8678
     5.2570   5.4793   6.3626   8.4906

     the Fermi energy is     5.4395 ev

!    total energy              =     -90.38926547 Ry
     Harris-Foulkes estimate   =     -90.38926590 Ry
     estimated scf accuracy    <       0.00000054 Ry

     The total energy is the sum of the following terms:

     one-electron contribution =     -41.02605684 Ry
     hartree contribution      =      34.76168840 Ry
     xc contribution           =     -27.50764869 Ry
     ewald contribution        =     -56.61744974 Ry
     smearing contrib. (-TS)   =       0.00020140 Ry

     convergence has been achieved in  11 iterations

     Forces acting on atoms (cartesian axes, Ry/au):

     atom    1 type  1   force =     0.02741934    0.00039678   -0.00015037
     atom    2 type  1   force =    -0.03936336   -0.02463599    0.00010680
     atom    3 type  1   force =     0.01590513   -0.01314124    0.00029070
     atom    4 type  1   force =    -0.04428435    0.02595186   -0.00025725
     atom    5 type  1   force =    -0.04017094    0.02178476   -0.00030831
     atom    6 type  1   force =     0.00816850   -0.01644620    0.00038395
     atom    7 type  1   force =     0.06894413    0.02921833   -0.00037386
     atom    8 type  1   force =     0.00338155   -0.02312831    0.00030834

     Total force =     0.120616     Total SCF correction =     0.001670


     Computing stress (Cartesian axis) and pressure

          total   stress  (Ry/bohr**3)                   (kbar)     P=       41.68
   0.00049494  -0.00002832   0.00000025           72.81       -4.17        0.04
  -0.00002832  -0.00000956  -0.00000291           -4.17       -1.41       -0.43
   0.00000025  -0.00000291   0.00036456            0.04       -0.43       53.63


     BFGS Geometry Optimization

     number of scf cycles    =   1
     number of bfgs steps    =   0

     enthalpy new            =     -90.3892289500 Ry

     new trust radius        =       0.0748808595 bohr
     new conv_thr            =       0.0000010000 Ry

     new unit-cell volume =    548.71210 a.u.^3 (    81.31074 Ang^3 )
     density =      1.96052 g/cm^3

CELL_PARAMETERS (bohr)
  13.901576517  -0.140292011   0.002517055
   0.079306065   8.380522505   0.005041909
   0.001648280   0.000559239   4.709425906

ATOMIC_POSITIONS (crystal)
C             0.3009483288        0.5438784403        0.5707456583
C             0.1954956644        0.5067626766        1.0710219290
C             0.7245697804        0.2886075060        0.0697115479
C             0.9114373375        0.1218983905        0.0710128924
C             0.4822729157        0.5437239924        0.5703803862
C             0.6481158315        0.3776205008        0.5696493020
C             0.0323959964        0.3871204862        1.0715120441
C             0.8939231453       -0.0605879928        0.5713852402



     Writing output data file ./pp.save/
     NEW-OLD atomic charge density approx. for the potential
     extrapolated charge   32.66892, renormalised to   32.00000

     total cpu time spent up to now is        7.9 secs

     Self-consistent Calculation

     iteration #  1     ecut=    40.00 Ry     beta= 0.50
     Davidson diagonalization with overlap
     ethr =  1.00E-06,  avg # of iterations =  8.8

     total cpu time spent up to now is       10.0 secs

     total energy              =     -90.35940206 Ry
     Harris-Foulkes estimate   =     -89.70481770 Ry
     estimated scf accuracy    <       0.03981437 Ry

     iteration #  2     ecut=    40.00 Ry     beta= 0.50
     Davidson diagonalization with overlap
     ethr =  1.24E-04,  avg # of iterations =  4.4

     total cpu time spent up to now is       11.0 secs

     total energy              =     -90.36547610 Ry
     Harris-Foulkes estimate   =     -90.44727267 Ry
     estimated scf accuracy    <       0.43758057 Ry

     iteration #  3     ecut=    40.00 Ry     beta= 0.50
     Davidson diagonalization with overlap
     ethr =  1.24E-04,  avg # of iterations =  2.8

     total cpu time spent up to now is       11.7 secs

     total energy              =     -90.39525124 Ry
     Harris-Foulkes estimate   =     -90.40026370 Ry
     estimated scf accuracy    <       0.01801644 Ry

     iteration #  4     ecut=    40.00 Ry     beta= 0.50
     Davidson diagonalization with overlap
     ethr =  5.63E-05,  avg # of iterations =  2.3

     total cpu time spent up to now is       12.3 secs

     total energy              =     -90.39600757 Ry
     Harris-Foulkes estimate   =     -90.39833068 Ry
     estimated scf accuracy    <       0.01465599 Ry

     iteration #  5     ecut=    40.00 Ry     beta= 0.50
     Davidson diagonalization with overlap
     ethr =  4.58E-05,  avg # of iterations =  1.0

     total cpu time spent up to now is       12.8 secs

     total energy              =     -90.39597743 Ry
     Harris-Foulkes estimate   =     -90.39696630 Ry
     estimated scf accuracy    <       0.00329420 Ry

     iteration #  6     ecut=    40.00 Ry     beta= 0.50
     Davidson diagonalization with overlap
     ethr =  1.03E-05,  avg # of iterations =  3.8

     total cpu time spent up to now is       13.5 secs

     total energy              =     -90.39627021 Ry
     Harris-Foulkes estimate   =     -90.39644434 Ry
     estimated scf accuracy    <       0.00052451 Ry

     iteration #  7     ecut=    40.00 Ry     beta= 0.50
     Davidson diagonalization with overlap
     ethr =  1.64E-06,  avg # of iterations =  3.3

     total cpu time spent up to now is       14.3 secs

     total energy              =     -90.39637900 Ry
     Harris-Foulkes estimate   =     -90.39640385 Ry
     estimated scf accuracy    <       0.00008441 Ry

     iteration #  8     ecut=    40.00 Ry     beta= 0.50
     Davidson diagonalization with overlap
     ethr =  2.64E-07,  avg # of iterations =  2.0

     total cpu time spent up to now is       14.9 secs

     total energy              =     -90.39639091 Ry
     Harris-Foulkes estimate   =     -90.39639181 Ry
     estimated scf accuracy    <       0.00000300 Ry

     iteration #  9     ecut=    40.00 Ry     beta= 0.50
     Davidson diagonalization with overlap
     ethr =  9.37E-09,  avg # of iterations =  3.2

     total cpu time spent up to now is       15.7 secs

     End of self-consistent calculation

          k = 0.0000 0.0000 0.0000 (  2333 PWs)   bands (ev):

   -14.1309 -12.6352 -11.7155  -8.6790  -6.3920  -5.3162  -2.0758  -1.3502
    -0.8111  -0.6368   0.5185   0.6887   1.4339   1.9997   3.9106   6.3078
     7.3592   7.5407   9.6702  10.1469

          k =-0.0001-0.0004 0.7290 (  2290 PWs)   bands (ev):

   -13.0555 -11.5923 -10.7408  -7.9484  -5.7341  -5.1817  -3.7316  -2.6166
    -2.2187  -1.9861  -0.6248  -0.1442   1.7306   2.6483   4.0526   4.4388
     5.8100   6.5875   7.9564   9.3957

          k = 0.0003 0.0009-1.4580 (  2306 PWs)   bands (ev):

   -10.5279  -9.7624  -8.8851  -8.4690  -7.2591  -7.0461  -4.6821  -4.5834
    -2.7968  -2.6811  -1.3343   2.2511   2.5112   2.6548   3.5747   4.1987
     5.2498   5.3084   5.7276   8.0868

          k =-0.0083-0.8192 0.0001 (  2280 PWs)   bands (ev):

   -13.9927 -12.6794 -11.6591  -8.9744  -6.4991  -5.4280  -2.1964  -1.7037
    -0.6101  -0.4935   0.3857   0.6923   1.4284   3.0377   4.3962   6.2367
     7.0442   7.4685   9.6211  10.5277

          k =-0.0084-0.8197 0.7291 (  2298 PWs)   bands (ev):

   -12.9259 -11.6348 -10.6862  -8.1971  -5.8118  -5.1910  -3.7690  -2.5792
    -2.2707  -2.0472  -1.0584   0.1067   1.5125   3.5302   3.7367   4.8019
     6.0147   6.5503   7.8018   9.6103

          k =-0.0080-0.8183-1.4579 (  2286 PWs)   bands (ev):

   -10.4223  -9.7007  -8.9177  -8.4641  -7.2091  -7.0777  -4.8462  -4.7307
    -2.7721  -2.6473  -1.5418   1.4727   2.2186   2.8743   3.6625   4.7454
     5.2083   5.3559   6.0693   8.4017

          k =-0.4939 0.0047 0.0002 (  2302 PWs)   bands (ev):

   -14.0213 -13.0921 -10.9872  -9.3470  -6.2985  -4.7076  -2.8187  -0.8371
    -0.6503  -0.5973  -0.4128   0.5280   1.5771   2.9351   4.4748   5.4655
     6.6605   7.5471   9.5509  10.1343

          k =-0.4940 0.0042 0.7291 (  2304 PWs)   bands (ev):

   -12.9449 -12.0554  -9.9902  -8.5972  -5.8799  -4.1530  -3.9197  -2.9813
    -2.6623  -1.8327  -0.3800   0.2969   0.5966   3.6198   4.1421   4.7311
     5.7925   6.3584   6.6887  10.2367

          k =-0.4936 0.0055-1.4578 (  2298 PWs)   bands (ev):

   -10.5002  -9.6946  -9.0128  -8.7171  -6.9008  -6.7740  -4.9172  -4.9013
    -2.9075  -2.5236  -1.1003   2.2421   2.5634   2.6320   3.5793   4.0167
     5.2495   5.2754   5.8208   8.0049

          k =-0.5021-0.8145 0.0003 (  2276 PWs)   bands (ev):

   -13.8937 -13.0379 -11.1536  -9.3570  -6.5826  -4.8846  -2.9094  -1.3103
    -0.5767  -0.5440   0.1751   0.5537   1.5479   3.9537   4.4231   5.7998
     6.5128   7.4983   9.4842  10.2117

          k =-0.5023-0.8150 0.7292 (  2283 PWs)   bands (ev):

   -12.8245 -12.0062 -10.1442  -8.6048  -6.0397  -4.2713  -3.9338  -2.9208
    -2.7532  -1.8759  -0.7544   0.1141   1.1921   3.8061   4.2981   4.7210
     6.0108   6.6032   6.7596   9.9729

          k =-0.5019-0.8137-1.4577 (  2296 PWs)   bands (ev):

   -10.3957  -9.6556  -9.0276  -8.6218  -7.0143  -6.8587  -5.0215  -4.8455
    -2.9079  -2.6231  -1.2974   1.4689   2.2768   2.7490   3.7442   4.6515
     5.1131   5.2460   6.1711   8.4502

     the Fermi energy is     5.2635 ev

!    total energy              =     -90.39639196 Ry
     Harris-Foulkes estimate   =     -90.39639224 Ry
     estimated scf accuracy    <       0.00000057 Ry

     The total energy is the sum of the following terms:

     one-electron contribution =     -40.88274386 Ry
     hartree contribution      =      34.47776345 Ry
     xc contribution           =     -27.39371710 Ry
     ewald contribution        =     -56.59673901 Ry
     smearing contrib. (-TS)   =      -0.00095544 Ry

     convergence has been achieved in   9 iterations

     Forces acting on atoms (cartesian axes, Ry/au):

     atom    1 type  1   force =    -0.01841456   -0.00327509    0.00000715
     atom    2 type  1   force =     0.06200033    0.01964557   -0.00009420
     atom    3 type  1   force =    -0.01272300    0.00499628    0.00024989
     atom    4 type  1   force =    -0.01109804    0.03498737    0.00026714
     atom    5 type  1   force =     0.02555579   -0.02199443   -0.00027060
     atom    6 type  1   force =    -0.01940895    0.00565171    0.00037640
     atom    7 type  1   force =    -0.03011864   -0.04216804   -0.00032059
     atom    8 type  1   force =     0.00420708    0.00215663   -0.00021519

     Total force =     0.101821     Total SCF correction =     0.000891


     Computing stress (Cartesian axis) and pressure

          total   stress  (Ry/bohr**3)                   (kbar)     P=       -3.23
   0.00040219   0.00013017   0.00000030           59.16       19.15        0.04
   0.00013017  -0.00028665  -0.00000132           19.15      -42.17       -0.19
   0.00000030  -0.00000132  -0.00018139            0.04       -0.19      -26.68


     number of scf cycles    =   2
     number of bfgs steps    =   1

     enthalpy old            =     -90.3892289500 Ry
     enthalpy new            =     -90.3963546552 Ry

     CASE: enthalpy_new < enthalpy_old

     new trust radius        =       0.0602579147 bohr
     new conv_thr            =       0.0000006200 Ry

     new unit-cell volume =    552.50313 a.u.^3 (    81.87252 Ang^3 )
     density =      1.94707 g/cm^3

CELL_PARAMETERS (bohr)
  14.077162093  -0.108590663   0.002640564
   0.099626263   8.332402778   0.004577909
   0.001710988   0.000298974   4.709874823

ATOMIC_POSITIONS (crystal)
C             0.3006992329        0.5435923669        0.5707344384
C             0.1978807187        0.5074321355        1.0710131270
C             0.7243085345        0.2884375040        0.0697785916
C             0.9094834103        0.1263389766        0.0710307671
C             0.4825663662        0.5427374411        0.5703099543
C             0.6472479394        0.3773440474        0.5697459500
C             0.0327054645        0.3846306251        1.0714295996
C             0.8942673335       -0.0614890966        0.5713765720



     Writing output data file ./pp.save/
     NEW-OLD atomic charge density approx. for the potential
     extrapolated charge   32.21957, renormalised to   32.00000

     total cpu time spent up to now is       15.7 secs

     Self-consistent Calculation

     iteration #  1     ecut=    40.00 Ry     beta= 0.50
     Davidson diagonalization with overlap
     ethr =  1.00E-06,  avg # of iterations =  7.6

     total cpu time spent up to now is       17.5 secs

     total energy              =     -90.39382793 Ry
     Harris-Foulkes estimate   =     -90.17745397 Ry
     estimated scf accuracy    <       0.01085093 Ry

     iteration #  2     ecut=    40.00 Ry     beta= 0.50
     Davidson diagonalization with overlap
     ethr =  3.39E-05,  avg # of iterations =  3.8

     total cpu time spent up to now is       18.5 secs

     total energy              =     -90.38872395 Ry
     Harris-Foulkes estimate   =     -90.41984166 Ry
     estimated scf accuracy    <       0.19305364 Ry

     iteration #  3     ecut=    40.00 Ry     beta= 0.50
     Davidson diagonalization with overlap
     ethr =  3.39E-05,  avg # of iterations =  2.9

     total cpu time spent up to now is       19.3 secs

     total energy              =     -90.40138682 Ry
     Harris-Foulkes estimate   =     -90.40229138 Ry
     estimated scf accuracy    <       0.00363494 Ry

     iteration #  4     ecut=    40.00 Ry     beta= 0.50
     Davidson diagonalization with overlap
     ethr =  1.14E-05,  avg # of iterations =  1.6

     total cpu time spent up to now is       19.9 secs

     total energy              =     -90.40163868 Ry
     Harris-Foulkes estimate   =     -90.40193653 Ry
     estimated scf accuracy    <       0.00157641 Ry

     iteration #  5     ecut=    40.00 Ry     beta= 0.50
     Davidson diagonalization with overlap
     ethr =  4.93E-06,  avg # of iterations =  1.2

     total cpu time spent up to now is       20.4 secs

     total energy              =     -90.40172011 Ry
     Harris-Foulkes estimate   =     -90.40178573 Ry
     estimated scf accuracy    <       0.00023861 Ry

     iteration #  6     ecut=    40.00 Ry     beta= 0.50
     Davidson diagonalization with overlap
     ethr =  7.46E-07,  avg # of iterations =  3.5

     total cpu time spent up to now is       21.2 secs

     total energy              =     -90.40174088 Ry
     Harris-Foulkes estimate   =     -90.40178137 Ry
     estimated scf accuracy    <       0.00014723 Ry

     iteration #  7     ecut=    40.00 Ry     beta= 0.50
     Davidson diagonalization with overlap
     ethr =  4.60E-07,  avg # of iterations =  1.5

     total cpu time spent up to now is       21.8 secs

     total energy              =     -90.40176095 Ry
     Harris-Foulkes estimate   =     -90.40176144 Ry
     estimated scf accuracy    <       0.00000253 Ry

     iteration #  8     ecut=    40.00 Ry     beta= 0.50
     Davidson diagonalization with overlap
     ethr =  7.90E-09,  avg # of iterations =  3.6

     total cpu time spent up to now is       22.8 secs

     total energy              =     -90.40176207 Ry
     Harris-Foulkes estimate   =     -90.40176239 Ry
     estimated scf accuracy    <       0.00000135 Ry

     iteration #  9     ecut=    40.00 Ry     beta= 0.50
     Davidson diagonalization with overlap
     ethr =  4.21E-09,  avg # of iterations =  1.8

     total cpu time spent up to now is       23.4 secs

     End of self-consistent calculation

          k = 0.0000 0.0000 0.0000 (  2333 PWs)   bands (ev):

   -14.1418 -12.6337 -11.7370  -8.5687  -6.5552  -5.3226  -2.0985  -1.3335
    -0.8763  -0.6248   0.4385   0.6052   1.5157   1.9714   3.8627   6.1870
     7.1764   7.6243   9.4988  10.0434

          k =-0.0001-0.0004 0.7289 (  2290 PWs)   bands (ev):

   -13.0643 -11.5881 -10.7558  -7.8298  -5.8848  -5.1917  -3.7284  -2.6888
    -2.2233  -1.9649  -0.7025  -0.1132   1.6533   2.6315   4.0389   4.4103
     5.6844   6.4639   7.7735   9.3056

          k = 0.0003 0.0008-1.4578 (  2306 PWs)   bands (ev):

   -10.5283  -9.7512  -8.8193  -8.4722  -7.2727  -7.1059  -4.6817  -4.5884
    -2.7950  -2.6969  -1.4874   2.2575   2.4127   2.7433   3.4912   4.1002
     5.1704   5.2209   5.7107   7.8853

          k =-0.0064-0.8239 0.0001 (  2280 PWs)   bands (ev):

   -14.0047 -12.6713 -11.6772  -8.8724  -6.6575  -5.4445  -2.2336  -1.7407
    -0.5986  -0.5103   0.2362   0.6078   1.5154   3.0856   4.3443   6.0631
     6.9604   7.5451   9.4494  10.3794

          k =-0.0065-0.8243 0.7290 (  2298 PWs)   bands (ev):

   -12.9358 -11.6244 -10.6981  -8.0858  -5.9615  -5.2023  -3.7699  -2.6544
    -2.2705  -2.0299  -1.1175   0.1033   1.3748   3.5332   3.7335   4.7701
     5.9034   6.4500   7.6301   9.5071

          k =-0.0061-0.8232-1.4578 (  2286 PWs)   bands (ev):

   -10.4246  -9.6879  -8.8430  -8.4672  -7.2188  -7.1301  -4.8610  -4.7319
    -2.7718  -2.6618  -1.6909   1.3888   2.1697   2.9345   3.5733   4.6690
     5.1042   5.2612   6.0020   8.2226

          k =-0.4877 0.0058 0.0002 (  2302 PWs)   bands (ev):

   -14.0436 -13.0694 -11.0397  -9.2713  -6.3144  -4.8201  -2.8624  -0.8137
    -0.6921  -0.5867  -0.4281   0.4701   1.6352   2.8225   4.4454   5.3187
     6.5370   7.6143   9.4077  10.0670

          k =-0.4878 0.0054 0.7291 (  2304 PWs)   bands (ev):

   -12.9653 -12.0294 -10.0397  -8.5071  -5.8935  -4.2617  -3.9329  -3.0217
    -2.6774  -1.8218  -0.4285   0.2974   0.6074   3.5121   4.1005   4.7047
     5.7295   6.2191   6.5589  10.0767

          k =-0.4874 0.0066-1.4576 (  2298 PWs)   bands (ev):

   -10.5035  -9.6871  -8.9487  -8.7107  -6.9236  -6.8280  -4.9399  -4.9107
    -2.8809  -2.5268  -1.2547   2.2292   2.4748   2.6978   3.5165   3.9312
     5.1645   5.1912   5.8016   7.8003

          k =-0.4941-0.8181 0.0002 (  2276 PWs)   bands (ev):

   -13.9175 -13.0100 -11.1892  -9.2844  -6.6306  -4.9889  -2.9583  -1.3210
    -0.6035  -0.5663   0.1410   0.4922   1.6139   3.8831   4.3537   5.6695
     6.4509   7.5618   9.3359  10.0549

          k =-0.4942-0.8185 0.7291 (  2283 PWs)   bands (ev):

   -12.8467 -11.9751 -10.1771  -8.5185  -6.0789  -4.3742  -3.9474  -2.9560
    -2.7775  -1.8611  -0.7670   0.0321   1.1879   3.7250   4.2104   4.7089
     6.0012   6.4762   6.6026   9.8215

          k =-0.4938-0.8173-1.4576 (  2296 PWs)   bands (ev):

   -10.4011  -9.6456  -8.9542  -8.6171  -7.0293  -6.9017  -5.0609  -4.8532
    -2.8838  -2.6281  -1.4508   1.3821   2.2311   2.7590   3.7041   4.5530
     5.0275   5.1699   6.1190   8.2400

     the Fermi energy is     5.1663 ev

!    total energy              =     -90.40176211 Ry
     Harris-Foulkes estimate   =     -90.40176223 Ry
     estimated scf accuracy    <       0.00000017 Ry

     The total energy is the sum of the following terms:

     one-electron contribution =     -40.48946936 Ry
     hartree contribution      =      34.21020364 Ry
     xc contribution           =     -27.32903778 Ry
     ewald contribution        =     -56.79310964 Ry
     smearing contrib. (-TS)   =      -0.00034898 Ry

     convergence has been achieved in   9 iterations

     Forces acting on atoms (cartesian axes, Ry/au):

     atom    1 type  1   force =     0.01088676   -0.00884698    0.00000374
     atom    2 type  1   force =     0.00434684   -0.01186380   -0.00012801
     atom    3 type  1   force =    -0.01400145    0.01108112    0.00021198
     atom    4 type  1   force =    -0.00245932    0.01826862    0.00017141
     atom    5 type  1   force =    -0.00426705   -0.01834826   -0.00013205
     atom    6 type  1   force =    -0.02086680    0.00348150    0.00032304
     atom    7 type  1   force =     0.02452735   -0.00292784   -0.00024348
     atom    8 type  1   force =     0.00183367    0.00915563   -0.00020663

     Total force =     0.050151     Total SCF correction =     0.000859


     Computing stress (Cartesian axis) and pressure

          total   stress  (Ry/bohr**3)                   (kbar)     P=      -31.30
  -0.00010299   0.00000904  -0.00000004          -15.15        1.33       -0.01
   0.00000904  -0.00034939  -0.00000055            1.33      -51.40       -0.08
  -0.00000004  -0.00000055  -0.00018603           -0.01       -0.08      -27.37


     number of scf cycles    =   3
     number of bfgs steps    =   2

     enthalpy old            =     -90.3963546552 Ry
     enthalpy new            =     -90.4017245562 Ry

     CASE: enthalpy_new < enthalpy_old

     new trust radius        =       0.0746869599 bohr
     new conv_thr            =       0.0000002453 Ry

     new unit-cell volume =    545.47871 a.u.^3 (    80.83160 Ang^3 )
     density =      1.97215 g/cm^3

CELL_PARAMETERS (bohr)
  14.187979421  -0.079540964   0.002720208
   0.117032369   8.201211390   0.003969913
   0.001753935  -0.000037460   4.687535115

ATOMIC_POSITIONS (crystal)
C             0.3017372513        0.5421003543        0.5707244384
C             0.1998263086        0.5058909159        1.0709774325
C             0.7229334887        0.2897367845        0.0698925312
C             0.9073718769        0.1327892790        0.0710804648
C             0.4820906453        0.5395560931        0.5702166700
C             0.6447131570        0.3773908066        0.5699167148
C             0.0357609767        0.3827044289        1.0712905408
C             0.8947252957       -0.0611446623        0.5713202075



     Writing output data file ./pp.save/
     NEW-OLD atomic charge density approx. for the potential
     extrapolated charge   31.58792, renormalised to   32.00000

     total cpu time spent up to now is       23.5 secs

     Self-consistent Calculation

     iteration #  1     ecut=    40.00 Ry     beta= 0.50
     Davidson diagonalization with overlap
     ethr =  1.00E-06,  avg # of iterations =  9.2

     total cpu time spent up to now is       26.0 secs

     total energy              =     -90.39227206 Ry
     Harris-Foulkes estimate   =     -90.81795023 Ry
     estimated scf accuracy    <       0.01635494 Ry

     iteration #  2     ecut=    40.00 Ry     beta= 0.50
     Davidson diagonalization with overlap
     ethr =  5.11E-05,  avg # of iterations =  4.4

     total cpu time spent up to now is       27.3 secs

     total energy              =     -90.39502638 Ry
     Harris-Foulkes estimate   =     -90.42921051 Ry
     estimated scf accuracy    <       0.18774179 Ry

     iteration #  3     ecut=    40.00 Ry     beta= 0.50
     Davidson diagonalization with overlap
     ethr =  5.11E-05,  avg # of iterations =  3.2

     total cpu time spent up to now is       28.3 secs

     total energy              =     -90.40618482 Ry
     Harris-Foulkes estimate   =     -90.40957463 Ry
     estimated scf accuracy    <       0.01503224 Ry

     iteration #  4     ecut=    40.00 Ry     beta= 0.50
     Davidson diagonalization with overlap
     ethr =  4.70E-05,  avg # of iterations =  1.5

     total cpu time spent up to now is       29.0 secs

     total energy              =     -90.40732961 Ry
     Harris-Foulkes estimate   =     -90.40849425 Ry
     estimated scf accuracy    <       0.00901121 Ry

     iteration #  5     ecut=    40.00 Ry     beta= 0.50
     Davidson diagonalization with overlap
     ethr =  2.82E-05,  avg # of iterations =  1.8

     total cpu time spent up to now is       29.7 secs

     total energy              =     -90.40751977 Ry
     Harris-Foulkes estimate   =     -90.40776771 Ry
     estimated scf accuracy    <       0.00235430 Ry

     iteration #  6     ecut=    40.00 Ry     beta= 0.50
     Davidson diagonalization with overlap
     ethr =  7.36E-06,  avg # of iterations =  1.3

     total cpu time spent up to now is       30.3 secs

     total energy              =     -90.40737077 Ry
     Harris-Foulkes estimate   =     -90.40760703 Ry
     estimated scf accuracy    <       0.00102976 Ry

     iteration #  7     ecut=    40.00 Ry     beta= 0.50
     Davidson diagonalization with overlap
     ethr =  3.22E-06,  avg # of iterations =  4.0

     total cpu time spent up to now is       31.4 secs

     total energy              =     -90.40746246 Ry
     Harris-Foulkes estimate   =     -90.40747214 Ry
     estimated scf accuracy    <       0.00002764 Ry

     iteration #  8     ecut=    40.00 Ry     beta= 0.50
     Davidson diagonalization with overlap
     ethr =  8.64E-08,  avg # of iterations =  3.1

     total cpu time spent up to now is       32.6 secs

     total energy              =     -90.40747544 Ry
     Harris-Foulkes estimate   =     -90.40748103 Ry
     estimated scf accuracy    <       0.00002406 Ry

     iteration #  9     ecut=    40.00 Ry     beta= 0.50
     Davidson diagonalization with overlap
     ethr =  7.52E-08,  avg # of iterations =  1.1

     total cpu time spent up to now is       33.2 secs

     total energy              =     -90.40747729 Ry
     Harris-Foulkes estimate   =     -90.40747747 Ry
     estimated scf accuracy    <       0.00000085 Ry

     iteration # 10     ecut=    40.00 Ry     beta= 0.50
     Davidson diagonalization with overlap
     ethr =  2.65E-09,  avg # of iterations =  3.0

     total cpu time spent up to now is       34.4 secs

     End of self-consistent calculation

          k = 0.0000 0.0000 0.0000 (  2333 PWs)   bands (ev):

   -14.0688 -12.5726 -11.7218  -8.4383  -6.6142  -5.1380  -2.0417  -1.2429
    -0.8065  -0.4475   0.4934   0.7569   1.7745   2.0484   3.9904   6.3131
     7.2420   7.8376   9.6548  10.1759

          k =-0.0001-0.0004 0.7324 (  2290 PWs)   bands (ev):

   -12.9786 -11.5151 -10.7267  -7.6850  -5.9206  -5.0010  -3.5865  -2.5776
    -2.1288  -1.8654  -0.6393   0.0139   1.7105   2.7413   4.1972   4.5850
     5.7551   6.6134   7.8534   9.4949

          k = 0.0003 0.0007-1.4648 (  2306 PWs)   bands (ev):

   -10.3822  -9.6814  -8.7100  -8.3631  -7.1853  -7.0507  -4.5537  -4.4686
    -2.6770  -2.6717  -1.4922   2.3521   2.5312   2.9084   3.6087   4.2032
     5.2905   5.3263   5.9181   8.0478

          k =-0.0047-0.8371-0.0000 (  2280 PWs)   bands (ev):

   -13.9246 -12.6038 -11.6530  -8.7441  -6.7070  -5.3270  -2.1856  -1.7117
    -0.4379  -0.4208   0.1981   0.7598   1.7790   3.2697   4.5580   6.0868
     7.1992   7.7526   9.6048  10.5451

          k =-0.0048-0.8375 0.7324 (  2298 PWs)   bands (ev):

   -12.8435 -11.5454 -10.6609  -7.9421  -5.9898  -5.0450  -3.6434  -2.5461
    -2.1762  -1.9268  -1.0716   0.1881   1.3504   3.6941   3.9125   4.9462
     6.0074   6.5981   7.7407   9.7084

          k =-0.0044-0.8364-1.4648 (  2286 PWs)   bands (ev):

   -10.2708  -9.6155  -8.7279  -8.3542  -7.1222  -7.0678  -4.7387  -4.6140
    -2.6764  -2.6358  -1.7060   1.4758   2.2228   3.0657   3.6764   4.7764
     5.1849   5.3488   6.1594   8.4324

          k =-0.4839 0.0069 0.0002 (  2302 PWs)   bands (ev):

   -13.9678 -13.0223 -11.0066  -9.2157  -6.1319  -4.8650  -2.7567  -0.7322
    -0.6113  -0.4079  -0.3297   0.6243   1.8939   2.8608   4.5544   5.4170
     6.6301   7.7961   9.6004  10.1721

          k =-0.4840 0.0066 0.7326 (  2304 PWs)   bands (ev):

   -12.8766 -11.9705  -9.9957  -8.4284  -5.7040  -4.2840  -3.7975  -2.9169
    -2.5637  -1.6659  -0.3638   0.3749   0.7518   3.5820   4.2040   4.8389
     5.9045   6.3380   6.6702  10.2550

          k =-0.4836 0.0076-1.4646 (  2298 PWs)   bands (ev):

   -10.3558  -9.6216  -8.8473  -8.6007  -6.8232  -6.7554  -4.8580  -4.8245
    -2.7049  -2.4708  -1.2839   2.3291   2.5693   2.8394   3.6595   4.0508
     5.2747   5.3083   6.0081   7.9572

          k =-0.4886-0.8302 0.0002 (  2276 PWs)   bands (ev):

   -13.8351 -12.9542 -11.1455  -9.2219  -6.5051  -5.0302  -2.8886  -1.2907
    -0.5824  -0.3874   0.2534   0.6463   1.8775   3.8847   4.5355   5.8491
     6.6361   7.7435   9.5196  10.2727

          k =-0.4887-0.8306 0.7326 (  2283 PWs)   bands (ev):

   -12.7519 -11.9079 -10.1231  -8.4339  -5.9303  -4.3975  -3.8094  -2.8540
    -2.6759  -1.7065  -0.7015   0.0233   1.3193   3.8582   4.2199   4.8866
     6.2133   6.6255   6.7207  10.0174

          k =-0.4883-0.8295-1.4646 (  2296 PWs)   bands (ev):

   -10.2458  -9.5759  -8.8465  -8.5048  -6.9192  -6.8221  -4.9797  -4.7643
    -2.7363  -2.5766  -1.4904   1.4606   2.2873   2.8575   3.8327   4.6273
     5.1412   5.2873   6.2965   8.4157

     the Fermi energy is     5.2710 ev

!    total energy              =     -90.40747750 Ry
     Harris-Foulkes estimate   =     -90.40747762 Ry
     estimated scf accuracy    <       0.00000016 Ry

     The total energy is the sum of the following terms:

     one-electron contribution =     -39.26164158 Ry
     hartree contribution      =      33.74529723 Ry
     xc contribution           =     -27.38356666 Ry
     ewald contribution        =     -57.50741106 Ry
     smearing contrib. (-TS)   =      -0.00015543 Ry

     convergence has been achieved in  10 iterations

     Forces acting on atoms (cartesian axes, Ry/au):

     atom    1 type  1   force =     0.01263346   -0.00995460   -0.00005108
     atom    2 type  1   force =    -0.00437432   -0.01599433   -0.00011227
     atom    3 type  1   force =    -0.00930724    0.01200761    0.00018235
     atom    4 type  1   force =     0.01021582    0.00379960   -0.00012069
     atom    5 type  1   force =    -0.02397930   -0.00557177    0.00006533
     atom    6 type  1   force =    -0.00400225   -0.00369641    0.00018224
     atom    7 type  1   force =     0.02089312    0.01050274   -0.00011326
     atom    8 type  1   force =    -0.00207929    0.00890716   -0.00003262

     Total force =     0.046364     Total SCF correction =     0.000781


     Computing stress (Cartesian axis) and pressure

          total   stress  (Ry/bohr**3)                   (kbar)     P=      -11.03
  -0.00000525  -0.00007419  -0.00000081           -0.77      -10.91       -0.12
  -0.00007419  -0.00028476  -0.00000013          -10.91      -41.89       -0.02
  -0.00000081  -0.00000013   0.00006498           -0.12       -0.02        9.56


     number of scf cycles    =   4
     number of bfgs steps    =   3

     enthalpy old            =     -90.4017245562 Ry
     enthalpy new            =     -90.4074404240 Ry

     CASE: enthalpy_new < enthalpy_old

     new trust radius        =       0.0829501259 bohr
     new conv_thr            =       0.0000002398 Ry

     new unit-cell volume =    540.81268 a.u.^3 (    80.14017 Ang^3 )
     density =      1.98916 g/cm^3

CELL_PARAMETERS (bohr)
  14.330451975  -0.071725676   0.002562357
   0.120556443   8.055673574   0.003434021
   0.001711277  -0.000356502   4.684385222

ATOMIC_POSITIONS (crystal)
C             0.3029472317        0.5401655788        0.5707050486
C             0.2017708334        0.5038196976        1.0709355546
C             0.7214653603        0.2915992516        0.0700157368
C             0.9061517100        0.1385263854        0.0710875173
C             0.4803535811        0.5368661555        0.5701526552
C             0.6427956496        0.3768725111        0.5700839140
C             0.0387144226        0.3816055121        1.0711580750
C             0.8949602113       -0.0604310922        0.5712804986



     Writing output data file ./pp.save/
     NEW-OLD atomic charge density approx. for the potential
     extrapolated charge   31.72391, renormalised to   32.00000

     total cpu time spent up to now is       34.5 secs

     Self-consistent Calculation

     iteration #  1     ecut=    40.00 Ry     beta= 0.50
     Davidson diagonalization with overlap
     ethr =  1.00E-06,  avg # of iterations =  8.7

     total cpu time spent up to now is       37.5 secs

     total energy              =     -90.40604646 Ry
     Harris-Foulkes estimate   =     -90.67389153 Ry
     estimated scf accuracy    <       0.00639753 Ry

     iteration #  2     ecut=    40.00 Ry     beta= 0.50
     Davidson diagonalization with overlap
     ethr =  2.00E-05,  avg # of iterations =  4.2

     total cpu time spent up to now is       39.2 secs

     total energy              =     -90.40734193 Ry
     Harris-Foulkes estimate   =     -90.41949438 Ry
     estimated scf accuracy    <       0.06694452 Ry

     iteration #  3     ecut=    40.00 Ry     beta= 0.50
     Davidson diagonalization with overlap
     ethr =  2.00E-05,  avg # of iterations =  3.2

     total cpu time spent up to now is       40.6 secs

     total energy              =     -90.41135718 Ry
     Harris-Foulkes estimate   =     -90.41268583 Ry
     estimated scf accuracy    <       0.00530600 Ry

     iteration #  4     ecut=    40.00 Ry     beta= 0.50
     Davidson diagonalization with overlap
     ethr =  1.66E-05,  avg # of iterations =  1.5

     total cpu time spent up to now is       41.4 secs

     total energy              =     -90.41179506 Ry
     Harris-Foulkes estimate   =     -90.41235401 Ry
     estimated scf accuracy    <       0.00422958 Ry

     iteration #  5     ecut=    40.00 Ry     beta= 0.50
     Davidson diagonalization with overlap
     ethr =  1.32E-05,  avg # of iterations =  1.0

     total cpu time spent up to now is       42.1 secs

     total energy              =     -90.41189669 Ry
     Harris-Foulkes estimate   =     -90.41203800 Ry
     estimated scf accuracy    <       0.00110407 Ry

     iteration #  6     ecut=    40.00 Ry     beta= 0.50
     Davidson diagonalization with overlap
     ethr =  3.45E-06,  avg # of iterations =  1.0

     total cpu time spent up to now is       42.9 secs

     total energy              =     -90.41184957 Ry
     Harris-Foulkes estimate   =     -90.41195236 Ry
     estimated scf accuracy    <       0.00041030 Ry

     iteration #  7     ecut=    40.00 Ry     beta= 0.50
     Davidson diagonalization with overlap
     ethr =  1.28E-06,  avg # of iterations =  2.9

     total cpu time spent up to now is       44.1 secs

     total energy              =     -90.41189752 Ry
     Harris-Foulkes estimate   =     -90.41189920 Ry
     estimated scf accuracy    <       0.00000717 Ry

     iteration #  8     ecut=    40.00 Ry     beta= 0.50
     Davidson diagonalization with overlap
     ethr =  2.24E-08,  avg # of iterations =  3.5

     total cpu time spent up to now is       45.7 secs

     total energy              =     -90.41190060 Ry
     Harris-Foulkes estimate   =     -90.41190512 Ry
     estimated scf accuracy    <       0.00001923 Ry

     iteration #  9     ecut=    40.00 Ry     beta= 0.50
     Davidson diagonalization with overlap
     ethr =  2.24E-08,  avg # of iterations =  2.0

     total cpu time spent up to now is       46.8 secs

     total energy              =     -90.41190236 Ry
     Harris-Foulkes estimate   =     -90.41190238 Ry
     estimated scf accuracy    <       0.00000029 Ry

     iteration # 10     ecut=    40.00 Ry     beta= 0.50
     Davidson diagonalization with overlap
     ethr =  9.00E-10,  avg # of iterations =  2.0

     total cpu time spent up to now is       48.0 secs

     End of self-consistent calculation

          k = 0.0000 0.0000 0.0000 (  2333 PWs)   bands (ev):

   -13.9657 -12.5071 -11.6745  -8.3587  -6.6160  -4.9339  -1.9897  -1.1391
    -0.7221  -0.3489   0.5482   0.8513   1.9018   2.1090   4.1055   6.4046
     7.3001   7.9284   9.7476  10.2344

          k =-0.0001-0.0003 0.7329 (  2290 PWs)   bands (ev):

   -12.8730 -11.4477 -10.6762  -7.6074  -5.9119  -4.8279  -3.4665  -2.4894
    -2.0706  -1.7994  -0.5656   0.1329   1.7618   2.8178   4.3228   4.7007
     5.7960   6.7376   7.9105   9.5919

          k = 0.0003 0.0006-1.4657 (  2306 PWs)   bands (ev):

   -10.2542  -9.6131  -8.6284  -8.2976  -7.0946  -7.0128  -4.4512  -4.3820
    -2.6272  -2.5977  -1.4175   2.4301   2.6381   3.0229   3.7045   4.2709
     5.3720   5.3923   6.0725   8.1633

          k =-0.0043-0.8523-0.0001 (  2280 PWs)   bands (ev):

   -13.8095 -12.5298 -11.5954  -8.6627  -6.7036  -5.2051  -2.1462  -1.6664
    -0.3812  -0.3207   0.1693   0.8555   1.9106   3.3999   4.7719   6.1030
     7.4146   7.8385   9.6952  10.6536

          k =-0.0044-0.8526 0.7328 (  2298 PWs)   bands (ev):

   -12.7267 -11.4700 -10.6008  -7.8622  -5.9779  -4.9060  -3.5459  -2.4576
    -2.1212  -1.8587  -1.0257   0.2497   1.3245   3.8059   4.0314   5.0734
     6.0896   6.7084   7.8387   9.8318

          k =-0.0040-0.8516-1.4658 (  2286 PWs)   bands (ev):

   -10.1310  -9.5432  -8.6407  -8.2797  -7.0262  -7.0221  -4.6409  -4.5263
    -2.6198  -2.5931  -1.6556   1.5369   2.2517   3.1412   3.7594   4.8387
     5.2222   5.3919   6.2726   8.5818

          k =-0.4791 0.0072 0.0002 (  2302 PWs)   bands (ev):

   -13.8599 -12.9656 -10.9441  -9.1927  -5.9193  -4.8846  -2.6501  -0.6573
    -0.5160  -0.3093  -0.2166   0.7189   2.0236   2.8780   4.6233   5.5218
     6.7077   7.8592   9.7297  10.2459

          k =-0.4792 0.0069 0.7330 (  2304 PWs)   bands (ev):

   -12.7656 -11.9123  -9.9301  -8.4012  -5.5098  -4.2984  -3.6922  -2.8329
    -2.4610  -1.5684  -0.3000   0.4473   0.8927   3.6206   4.2636   4.9113
     6.0538   6.4425   6.7527  10.3527

          k =-0.4788 0.0078-1.4656 (  2298 PWs)   bands (ev):

   -10.2265  -9.5561  -8.7704  -8.5270  -6.7317  -6.7091  -4.7908  -4.7606
    -2.5537  -2.4036  -1.2518   2.4194   2.6461   2.9389   3.7690   4.1322
     5.3485   5.3916   6.1633   8.0643

          k =-0.4834-0.8451 0.0001 (  2276 PWs)   bands (ev):

   -13.7149 -12.8896 -11.0704  -9.1952  -6.3518  -5.0509  -2.8176  -1.2754
    -0.5499  -0.2873   0.3548   0.7421   2.0113   3.8360   4.7176   6.0204
     6.8036   7.8058   9.6395  10.4648

          k =-0.4835-0.8454 0.7330 (  2283 PWs)   bands (ev):

   -12.6293 -11.8422 -10.0459  -8.4037  -5.7727  -4.4153  -3.7027  -2.7714
    -2.5900  -1.6132  -0.6564   0.0215   1.4258   3.9486   4.1774   5.0178
     6.3764   6.7634   6.8160  10.1521

          k =-0.4831-0.8445-1.4656 (  2296 PWs)   bands (ev):

   -10.1045  -9.5056  -8.7640  -8.4262  -6.8160  -6.7689  -4.9133  -4.6994
    -2.6135  -2.5135  -1.4827   1.5197   2.3110   2.9189   3.9171   4.6772
     5.2146   5.3422   6.4282   8.5316

     the Fermi energy is     5.3408 ev

!    total energy              =     -90.41190234 Ry
     Harris-Foulkes estimate   =     -90.41190241 Ry
     estimated scf accuracy    <       0.00000009 Ry

     The total energy is the sum of the following terms:

     one-electron contribution =     -37.59288017 Ry
     hartree contribution      =      33.01483591 Ry
     xc contribution           =     -27.39953112 Ry
     ewald contribution        =     -58.43422717 Ry
     smearing contrib. (-TS)   =      -0.00009980 Ry

     convergence has been achieved in  10 iterations

     Forces acting on atoms (cartesian axes, Ry/au):

     atom    1 type  1   force =     0.00085874   -0.01094792   -0.00005888
     atom    2 type  1   force =    -0.01026868   -0.01670525   -0.00012310
     atom    3 type  1   force =    -0.00138703    0.01185760    0.00016800
     atom    4 type  1   force =     0.01270194   -0.00536806   -0.00020478
     atom    5 type  1   force =    -0.01141697   -0.00603468    0.00020660
     atom    6 type  1   force =    -0.00282359   -0.00092083    0.00004560
     atom    7 type  1   force =     0.01597564    0.02045859   -0.00001598
     atom    8 type  1   force =    -0.00364004    0.00766056   -0.00001747

     Total force =     0.041943     Total SCF correction =     0.000696


     Computing stress (Cartesian axis) and pressure

          total   stress  (Ry/bohr**3)                   (kbar)     P=       -5.58
   0.00001707  -0.00007502  -0.00000116            2.51      -11.04       -0.17
  -0.00007502  -0.00026568   0.00000038          -11.04      -39.08        0.06
  -0.00000116   0.00000038   0.00013472           -0.17        0.06       19.82


     number of scf cycles    =   5
     number of bfgs steps    =   4

     enthalpy old            =     -90.4074404240 Ry
     enthalpy new            =     -90.4118655806 Ry

     CASE: enthalpy_new < enthalpy_old

     new trust radius        =       0.1261311461 bohr
     new conv_thr            =       0.0000002046 Ry

     new unit-cell volume =    534.20361 a.u.^3 (    79.16081 Ang^3 )
     density =      2.01377 g/cm^3

CELL_PARAMETERS (bohr)
  14.529974306  -0.067175419   0.002105352
   0.120492572   7.837241636   0.002876722
   0.001564537  -0.000716655   4.690810201

ATOMIC_POSITIONS (crystal)
C             0.3036379599        0.5369421684        0.5706754433
C             0.2039070411        0.5003918269        1.0708664941
C             0.7199404234        0.2946764005        0.0701921358
C             0.9050994545        0.1451358069        0.0710702749
C             0.4788024514        0.5327036876        0.5701118481
C             0.6400796946        0.3765679709        0.5702859683
C             0.0426242211        0.3818004589        1.0709939489
C             0.8950677539       -0.0591943202        0.5712228866



     Writing output data file ./pp.save/
     NEW-OLD atomic charge density approx. for the potential
     extrapolated charge   31.60411, renormalised to   32.00000

     total cpu time spent up to now is       48.1 secs

     Self-consistent Calculation

     iteration #  1     ecut=    40.00 Ry     beta= 0.50
     Davidson diagonalization with overlap
     ethr =  1.00E-06,  avg # of iterations =  8.5

     total cpu time spent up to now is       52.1 secs

     total energy              =     -90.40501763 Ry
     Harris-Foulkes estimate   =     -90.76189054 Ry
     estimated scf accuracy    <       0.01201302 Ry

     iteration #  2     ecut=    40.00 Ry     beta= 0.50
     Davidson diagonalization with overlap
     ethr =  3.75E-05,  avg # of iterations =  4.3

     total cpu time spent up to now is       54.3 secs

     total energy              =     -90.40550098 Ry
     Harris-Foulkes estimate   =     -90.43529567 Ry
     estimated scf accuracy    <       0.18604992 Ry

     iteration #  3     ecut=    40.00 Ry     beta= 0.50
     Davidson diagonalization with overlap
     ethr =  3.75E-05,  avg # of iterations =  3.2

     total cpu time spent up to now is       56.1 secs

     total energy              =     -90.41570634 Ry
     Harris-Foulkes estimate   =     -90.41844920 Ry
     estimated scf accuracy    <       0.01252011 Ry

     iteration #  4     ecut=    40.00 Ry     beta= 0.50
     Davidson diagonalization with overlap
     ethr =  3.75E-05,  avg # of iterations =  1.2

     total cpu time spent up to now is       57.1 secs

     total energy              =     -90.41641570 Ry
     Harris-Foulkes estimate   =     -90.41742426 Ry
     estimated scf accuracy    <       0.00803869 Ry

     iteration #  5     ecut=    40.00 Ry     beta= 0.50
     Davidson diagonalization with overlap
     ethr =  2.51E-05,  avg # of iterations =  1.0

     total cpu time spent up to now is       58.0 secs

     total energy              =     -90.41656416 Ry
     Harris-Foulkes estimate   =     -90.41688477 Ry
     estimated scf accuracy    <       0.00271001 Ry

     iteration #  6     ecut=    40.00 Ry     beta= 0.50
     Davidson diagonalization with overlap
     ethr =  8.47E-06,  avg # of iterations =  1.3

     total cpu time spent up to now is       59.1 secs

     total energy              =     -90.41645156 Ry
     Harris-Foulkes estimate   =     -90.41668062 Ry
     estimated scf accuracy    <       0.00092684 Ry

     iteration #  7     ecut=    40.00 Ry     beta= 0.50
     Davidson diagonalization with overlap
     ethr =  2.90E-06,  avg # of iterations =  3.3

     total cpu time spent up to now is       60.8 secs

     total energy              =     -90.41655650 Ry
     Harris-Foulkes estimate   =     -90.41655917 Ry
     estimated scf accuracy    <       0.00001352 Ry

     iteration #  8     ecut=    40.00 Ry     beta= 0.50
     Davidson diagonalization with overlap
     ethr =  4.22E-08,  avg # of iterations =  3.4

     total cpu time spent up to now is       62.9 secs

     total energy              =     -90.41656389 Ry
     Harris-Foulkes estimate   =     -90.41657251 Ry
     estimated scf accuracy    <       0.00004054 Ry

     iteration #  9     ecut=    40.00 Ry     beta= 0.50
     Davidson diagonalization with overlap
     ethr =  4.22E-08,  avg # of iterations =  2.0

     total cpu time spent up to now is       64.4 secs

     total energy              =     -90.41656632 Ry
     Harris-Foulkes estimate   =     -90.41656685 Ry
     estimated scf accuracy    <       0.00000244 Ry

     iteration # 10     ecut=    40.00 Ry     beta= 0.50
     Davidson diagonalization with overlap
     ethr =  7.62E-09,  avg # of iterations =  1.8

     total cpu time spent up to now is       65.8 secs

     End of self-consistent calculation

          k = 0.0000 0.0000 0.0000 (  2333 PWs)   bands (ev):

   -13.7883 -12.3857 -11.5894  -8.2241  -6.5831  -4.5903  -1.8783  -0.9700
    -0.5868  -0.1916   0.6626   0.9402   2.0108   2.2296   4.2977   6.5725
     7.3799   8.0306   9.8370  10.3196

          k =-0.0001-0.0003 0.7319 (  2290 PWs)   bands (ev):

   -12.6978 -11.3284 -10.5934  -7.4830  -5.8783  -4.5579  -3.2694  -2.3748
    -1.9777  -1.6972  -0.4408   0.3126   1.8591   2.9528   4.5101   4.8718
     5.8615   6.9339   7.9737   9.7368

          k = 0.0002 0.0005-1.4637 (  2306 PWs)   bands (ev):

   -10.0698  -9.4996  -8.5453  -8.1616  -6.9940  -6.9159  -4.3067  -4.2434
    -2.5530  -2.4746  -1.2214   2.5667   2.8304   3.1411   3.8450   4.3808
     5.4991   5.5140   6.2937   8.3405

          k =-0.0041-0.8760-0.0001 (  2280 PWs)   bands (ev):

   -13.6078 -12.3949 -11.4951  -8.5255  -6.6570  -5.0018  -2.0623  -1.5884
    -0.2945  -0.1584   0.1650   0.9460   2.0254   3.5886   5.1184   6.1214
     7.7469   7.9338   9.7822  10.7993

          k =-0.0042-0.8763 0.7317 (  2298 PWs)   bands (ev):

   -12.5286 -11.3381 -10.5036  -7.7343  -5.9327  -4.6882  -3.3886  -2.3451
    -2.0371  -1.7516  -0.9552   0.3404   1.3105   3.9687   4.1997   5.2405
     6.2353   6.8405   7.9757  10.0183

          k =-0.0038-0.8755-1.4639 (  2286 PWs)   bands (ev):

    -9.9221  -9.4202  -8.5517  -8.1309  -6.9172  -6.9086  -4.5012  -4.3882
    -2.5275  -2.5191  -1.5164   1.6414   2.3161   3.1953   3.8847   4.9175
     5.2930   5.4751   6.4087   8.7888

          k =-0.4725 0.0073 0.0002 (  2302 PWs)   bands (ev):

   -13.6729 -12.8619 -10.8429  -9.1171  -5.6218  -4.8337  -2.4601  -0.5172
    -0.3687  -0.1475  -0.0347   0.8013   2.1371   2.9589   4.7248   5.6877
     6.8661   7.9296   9.8650  10.3645

          k =-0.4726 0.0070 0.7320 (  2304 PWs)   bands (ev):

   -12.5798 -11.8121  -9.8309  -8.3276  -5.2492  -4.2571  -3.5287  -2.7153
    -2.2975  -1.4411  -0.1897   0.5793   1.0918   3.7179   4.3543   5.0274
     6.2731   6.5749   6.8927  10.4767

          k =-0.4723 0.0078-1.4636 (  2298 PWs)   bands (ev):

   -10.0401  -9.4460  -8.6867  -8.3900  -6.6241  -6.6122  -4.6806  -4.6483
    -2.3374  -2.2996  -1.1180   2.5695   2.7999   3.0499   3.9094   4.2573
     5.4815   5.5264   6.3860   8.2364

          k =-0.4766-0.8688 0.0000 (  2276 PWs)   bands (ev):

   -13.5022 -12.7722 -10.9547  -9.1084  -6.1390  -5.0137  -2.6968  -1.2307
    -0.4738  -0.1212   0.4823   0.8276   2.1294   3.7975   5.0153   6.2617
     7.0732   7.8766   9.7597  10.7602

          k =-0.4767-0.8690 0.7319 (  2283 PWs)   bands (ev):

   -12.4192 -11.7293  -9.9335  -8.3199  -5.5620  -4.3851  -3.5336  -2.6473
    -2.4721  -1.4963  -0.5865   0.0536   1.5502   4.0831   4.1618   5.1957
     6.6005   6.9153   6.9923  10.3381

          k =-0.4763-0.8682-1.4637 (  2296 PWs)   bands (ev):

    -9.8929  -9.3852  -8.6749  -8.2769  -6.6923  -6.6620  -4.8013  -4.5840
    -2.4393  -2.4177  -1.4025   1.6228   2.3685   2.9772   4.0164   4.7534
     5.3329   5.4264   6.5893   8.7029

     the Fermi energy is     5.4586 ev

!    total energy              =     -90.41656663 Ry
     Harris-Foulkes estimate   =     -90.41656665 Ry
     estimated scf accuracy    <       0.00000006 Ry

     The total energy is the sum of the following terms:

     one-electron contribution =     -34.84236494 Ry
     hartree contribution      =      31.78769514 Ry
     xc contribution           =     -27.40171947 Ry
     ewald contribution        =     -59.96019408 Ry
     smearing contrib. (-TS)   =       0.00001672 Ry

     convergence has been achieved in  10 iterations

     Forces acting on atoms (cartesian axes, Ry/au):

     atom    1 type  1   force =     0.00724067   -0.01267498   -0.00008140
     atom    2 type  1   force =    -0.00185269   -0.01044690   -0.00011921
     atom    3 type  1   force =     0.00591541    0.01294558    0.00015855
     atom    4 type  1   force =     0.01517810   -0.00878780   -0.00021678
     atom    5 type  1   force =    -0.02324207   -0.00234445    0.00034620
     atom    6 type  1   force =     0.01078889   -0.00390165   -0.00011877
     atom    7 type  1   force =    -0.01051136    0.02203469    0.00007704
     atom    8 type  1   force =    -0.00351695    0.00317550   -0.00004563

     Total force =     0.046172     Total SCF correction =     0.000435


     Computing stress (Cartesian axis) and pressure

          total   stress  (Ry/bohr**3)                   (kbar)     P=       -6.55
  -0.00000400  -0.00005446  -0.00000128           -0.59       -8.01       -0.19
  -0.00005446  -0.00023323   0.00000092           -8.01      -34.31        0.14
  -0.00000128   0.00000092   0.00010368           -0.19        0.14       15.25


     number of scf cycles    =   6
     number of bfgs steps    =   5

     enthalpy old            =     -90.4118655806 Ry
     enthalpy new            =     -90.4165303154 Ry

     CASE: enthalpy_new < enthalpy_old

     new trust radius        =       0.1932780693 bohr
     new conv_thr            =       0.0000002324 Ry

     new unit-cell volume =    521.23354 a.u.^3 (    77.23884 Ang^3 )
     density =      2.06388 g/cm^3

CELL_PARAMETERS (bohr)
  14.772687765  -0.063340915   0.001212532
   0.117529785   7.509561612   0.002384144
   0.001263279  -0.001080360   4.698173901

ATOMIC_POSITIONS (crystal)
C             0.3052486312        0.5315157119        0.5706250108
C             0.2072133798        0.4956088317        1.0707548368
C             0.7185293856        0.2999677831        0.0704468528
C             0.9046554303        0.1531353579        0.0710257439
C             0.4751474210        0.5268442173        0.5701302464
C             0.6375306327        0.3758780293        0.5705136691
C             0.0457770764        0.3835991945        1.0707976815
C             0.8950570429       -0.0575251257        0.5711249587



     Writing output data file ./pp.save/
     NEW-OLD atomic charge density approx. for the potential
     extrapolated charge   31.20374, renormalised to   32.00000

     total cpu time spent up to now is       65.9 secs

     Self-consistent Calculation

     iteration #  1     ecut=    40.00 Ry     beta= 0.50
     Davidson diagonalization with overlap
     ethr =  1.00E-06,  avg # of iterations =  9.2

     total cpu time spent up to now is       71.4 secs

     total energy              =     -90.37397463 Ry
     Harris-Foulkes estimate   =     -91.02161858 Ry
     estimated scf accuracy    <       0.04933347 Ry

     iteration #  2     ecut=    40.00 Ry     beta= 0.50
     Davidson diagonalization with overlap
     ethr =  1.54E-04,  avg # of iterations =  4.2

     total cpu time spent up to now is       74.1 secs

     total energy              =     -90.37873784 Ry
     Harris-Foulkes estimate   =     -90.50972298 Ry
     estimated scf accuracy    <       0.80430069 Ry

     iteration #  3     ecut=    40.00 Ry     beta= 0.50
     Davidson diagonalization with overlap
     ethr =  1.54E-04,  avg # of iterations =  3.1

     total cpu time spent up to now is       76.1 secs

     total energy              =     -90.41880232 Ry
     Harris-Foulkes estimate   =     -90.43119291 Ry
     estimated scf accuracy    <       0.06165487 Ry

     iteration #  4     ecut=    40.00 Ry     beta= 0.50
     Davidson diagonalization with overlap
     ethr =  1.54E-04,  avg # of iterations =  1.1

     total cpu time spent up to now is       77.2 secs

     total energy              =     -90.42155729 Ry
     Harris-Foulkes estimate   =     -90.42509855 Ry
     estimated scf accuracy    <       0.03287401 Ry

     iteration #  5     ecut=    40.00 Ry     beta= 0.50
     Davidson diagonalization with overlap
     ethr =  1.03E-04,  avg # of iterations =  1.0

     total cpu time spent up to now is       78.4 secs

     total energy              =     -90.42185645 Ry
     Harris-Foulkes estimate   =     -90.42295185 Ry
     estimated scf accuracy    <       0.01113165 Ry

     iteration #  6     ecut=    40.00 Ry     beta= 0.50
     Davidson diagonalization with overlap
     ethr =  3.48E-05,  avg # of iterations =  1.7

     total cpu time spent up to now is       79.8 secs

     total energy              =     -90.42145212 Ry
     Harris-Foulkes estimate   =     -90.42220801 Ry
     estimated scf accuracy    <       0.00382991 Ry

     iteration #  7     ecut=    40.00 Ry     beta= 0.50
     Davidson diagonalization with overlap
     ethr =  1.20E-05,  avg # of iterations =  3.1

     total cpu time spent up to now is       81.8 secs

     total energy              =     -90.42162431 Ry
     Harris-Foulkes estimate   =     -90.42173176 Ry
     estimated scf accuracy    <       0.00044892 Ry

     iteration #  8     ecut=    40.00 Ry     beta= 0.50
     Davidson diagonalization with overlap
     ethr =  1.40E-06,  avg # of iterations =  3.3

     total cpu time spent up to now is       84.0 secs

     total energy              =     -90.42172455 Ry
     Harris-Foulkes estimate   =     -90.42174389 Ry
     estimated scf accuracy    <       0.00009149 Ry

     iteration #  9     ecut=    40.00 Ry     beta= 0.50
     Davidson diagonalization with overlap
     ethr =  2.86E-07,  avg # of iterations =  1.2

     total cpu time spent up to now is       85.4 secs

     total energy              =     -90.42172826 Ry
     Harris-Foulkes estimate   =     -90.42173154 Ry
     estimated scf accuracy    <       0.00001688 Ry

     iteration # 10     ecut=    40.00 Ry     beta= 0.50
     Davidson diagonalization with overlap
     ethr =  5.27E-08,  avg # of iterations =  2.2

     total cpu time spent up to now is       87.1 secs

     total energy              =     -90.42173037 Ry
     Harris-Foulkes estimate   =     -90.42173049 Ry
     estimated scf accuracy    <       0.00000055 Ry

     iteration # 11     ecut=    40.00 Ry     beta= 0.50
     Davidson diagonalization with overlap
     ethr =  1.72E-09,  avg # of iterations =  3.2

     total cpu time spent up to now is       89.5 secs

     End of self-consistent calculation

          k = 0.0000 0.0000 0.0000 (  2333 PWs)   bands (ev):

   -13.5189 -12.1458 -11.3727  -7.9829  -6.3978  -4.0945  -1.5991  -0.6163
    -0.3180   0.0617   0.9540   1.1610   2.1276   2.4347   4.6624   6.9044
     7.6418   8.2520  10.0828  10.5136

          k =-0.0001-0.0002 0.7307 (  2290 PWs)   bands (ev):

   -12.4306 -11.0926 -10.3779  -7.2551  -5.6858  -4.1923  -2.9467  -2.1187
    -1.7641  -1.4864  -0.1673   0.6451   2.1454   3.1620   4.8582   5.1501
     6.0801   7.3079   8.2157   9.9835

          k = 0.0001 0.0005-1.4614 (  2306 PWs)   bands (ev):

    -9.8087  -9.2669  -8.2721  -7.9645  -6.7785  -6.7285  -4.0351  -3.9910
    -2.3327  -2.2678  -0.8158   2.8510   3.1419   3.4560   4.1409   4.5679
     5.7878   5.8010   6.6603   8.5921

          k =-0.0039-0.9143-0.0002 (  2280 PWs)   bands (ev):

   -13.2887 -12.1308 -11.2421  -8.2950  -6.4555  -4.7311  -1.8421  -1.3739
    -0.1301   0.1068   0.2821   1.1702   2.1525   3.8834   5.6046   6.2721
     8.1413   8.3112  10.0193  11.0434

          k =-0.0040-0.9145 0.7305 (  2298 PWs)   bands (ev):

   -12.2142 -11.0796 -10.2539  -7.5139  -5.7285  -4.3863  -3.1365  -2.0934
    -1.8305  -1.5424  -0.7718   0.5016   1.4183   4.2153   4.4754   5.5041
     6.5453   7.0989   8.3146  10.2955

          k =-0.0038-0.9138-1.4617 (  2286 PWs)   bands (ev):

    -9.6144  -9.1664  -8.2624  -7.9037  -6.7102  -6.6703  -4.2568  -4.1325
    -2.3494  -2.2981  -1.2282   1.7909   2.4636   3.4119   4.1719   5.0765
     5.4688   5.6634   6.6729   9.0302

          k =-0.4648 0.0073 0.0001 (  2302 PWs)   bands (ev):

   -13.4005 -12.6283 -10.6099  -8.9333  -5.1498  -4.6670  -2.1036  -0.2002
    -0.0678   0.1110   0.3089   1.0045   2.2678   3.1344   4.9656   6.0396
     7.2303   8.1228  10.1577  10.6455

          k =-0.4648 0.0070 0.7308 (  2304 PWs)   bands (ev):

   -12.3090 -11.5827  -9.5999  -8.1467  -4.8342  -4.1099  -3.2571  -2.4848
    -1.9660  -1.2272   0.0681   0.8819   1.4438   3.9084   4.5860   5.2526
     6.6283   6.9016   7.2357  10.6903

          k =-0.4646 0.0077-1.4613 (  2298 PWs)   bands (ev):

    -9.7799  -9.2138  -8.4182  -8.1864  -6.4177  -6.4128  -4.4456  -4.4150
    -2.0517  -2.0447  -0.7617   2.8620   3.0743   3.3667   4.1867   4.4639
     5.7785   5.8247   6.7528   8.4851

          k =-0.4687-0.9070-0.0001 (  2276 PWs)   bands (ev):

   -13.1769 -12.5128 -10.6943  -8.9108  -5.8120  -4.8757  -2.4365  -1.1063
    -0.2548   0.1482   0.7090   1.0387   2.2661   3.8393   5.4518   6.6907
     7.5382   8.0665  10.0247  11.2262

          k =-0.4687-0.9072 0.7306 (  2283 PWs)   bands (ev):

   -12.0976 -11.4759  -9.6770  -8.1274  -5.2300  -4.2513  -3.2566  -2.4054
    -2.2072  -1.3039  -0.4177   0.1969   1.7868   4.1733   4.3517   5.4994
     6.9611   7.2155   7.3711  10.6060

          k =-0.4686-0.9065-1.4615 (  2296 PWs)   bands (ev):

    -9.5854  -9.1329  -8.3890  -8.0437  -6.4571  -6.4499  -4.5783  -4.3411
    -2.1980  -2.1813  -1.1592   1.7828   2.4924   3.2072   4.2592   4.9643
     5.5609   5.5745   6.8604   8.9105

     the Fermi energy is     5.7247 ev

!    total energy              =     -90.42173055 Ry
     Harris-Foulkes estimate   =     -90.42173057 Ry
     estimated scf accuracy    <       0.00000009 Ry

     The total energy is the sum of the following terms:

     one-electron contribution =     -30.43461442 Ry
     hartree contribution      =      29.88054964 Ry
     xc contribution           =     -27.41410171 Ry
     ewald contribution        =     -62.45325891 Ry
     smearing contrib. (-TS)   =      -0.00030515 Ry

     convergence has been achieved in  11 iterations

     Forces acting on atoms (cartesian axes, Ry/au):

     atom    1 type  1   force =    -0.02140643   -0.01311728   -0.00006646
     atom    2 type  1   force =    -0.01590148   -0.01056115   -0.00008981
     atom    3 type  1   force =     0.01146027    0.01433708    0.00017870
     atom    4 type  1   force =     0.00109998   -0.02406790   -0.00018129
     atom    5 type  1   force =     0.02223048   -0.00921583    0.00041087
     atom    6 type  1   force =     0.00690572    0.00464597   -0.00031728
     atom    7 type  1   force =    -0.00690688    0.03865474    0.00014962
     atom    8 type  1   force =     0.00251835   -0.00067562   -0.00008436

     Total force =     0.064106     Total SCF correction =     0.000559


     Computing stress (Cartesian axis) and pressure

          total   stress  (Ry/bohr**3)                   (kbar)     P=       -4.19
   0.00004820   0.00000742  -0.00000132            7.09        1.09       -0.19
   0.00000742  -0.00023351   0.00000135            1.09      -34.35        0.20
  -0.00000132   0.00000135   0.00009989           -0.19        0.20       14.69


     number of scf cycles    =   7
     number of bfgs steps    =   6

     enthalpy old            =     -90.4165303154 Ry
     enthalpy new            =     -90.4216951141 Ry

     CASE: enthalpy_new < enthalpy_old

     new trust radius        =       0.5438047795 bohr
     new conv_thr            =       0.0000003865 Ry

     new unit-cell volume =    481.18561 a.u.^3 (    71.30435 Ang^3 )
     density =      2.23565 g/cm^3

CELL_PARAMETERS (bohr)
  15.404697642  -0.035421084  -0.001439847
   0.122482392   6.615426317   0.001520248
   0.000363631  -0.001841683   4.721533636

ATOMIC_POSITIONS (crystal)
C             0.3066162004        0.5161307070        0.5704893025
C             0.2138500126        0.4823844934        1.0704605497
C             0.7158197758        0.3153875352        0.0711360677
C             0.9028050208        0.1698605015        0.0708951690
C             0.4694712523        0.5105637717        0.5702721015
C             0.6317177358        0.3750145235        0.5709918340
C             0.0531445597        0.3932378133        1.0703278043
C             0.8957344426       -0.0535553457        0.5708461713



     Writing output data file ./pp.save/
     NEW-OLD atomic charge density approx. for the potential
     extrapolated charge   29.33674, renormalised to   32.00000

     total cpu time spent up to now is       89.6 secs

     Self-consistent Calculation

     iteration #  1     ecut=    40.00 Ry     beta= 0.50
     Davidson diagonalization with overlap
     ethr =  1.00E-06,  avg # of iterations = 12.1

     total cpu time spent up to now is       97.6 secs

     total energy              =     -89.58242046 Ry
     Harris-Foulkes estimate   =     -91.53716171 Ry
     estimated scf accuracy    <       0.97827918 Ry

     iteration #  2     ecut=    40.00 Ry     beta= 0.50
     Davidson diagonalization with overlap
     ethr =  3.06E-03,  avg # of iterations =  4.7

     total cpu time spent up to now is      101.1 secs

     total energy              =     -89.36352154 Ry
     Harris-Foulkes estimate   =     -92.45269858 Ry
     estimated scf accuracy    <      18.59567249 Ry

     iteration #  3     ecut=    40.00 Ry     beta= 0.50
     Davidson diagonalization with overlap
     ethr =  3.06E-03,  avg # of iterations =  4.3

     total cpu time spent up to now is      104.2 secs

     total energy              =     -90.43247589 Ry
     Harris-Foulkes estimate   =     -90.50151488 Ry
     estimated scf accuracy    <       0.61545073 Ry

     iteration #  4     ecut=    40.00 Ry     beta= 0.50
     Davidson diagonalization with overlap
     ethr =  1.92E-03,  avg # of iterations =  1.0

     total cpu time spent up to now is      105.5 secs

     total energy              =     -90.42849192 Ry
     Harris-Foulkes estimate   =     -90.45210682 Ry
     estimated scf accuracy    <       0.28180145 Ry

     iteration #  5     ecut=    40.00 Ry     beta= 0.50
     Davidson diagonalization with overlap
     ethr =  8.81E-04,  avg # of iterations =  1.0

     total cpu time spent up to now is      106.9 secs

     total energy              =     -90.42856003 Ry
     Harris-Foulkes estimate   =     -90.43838628 Ry
     estimated scf accuracy    <       0.09600001 Ry

     iteration #  6     ecut=    40.00 Ry     beta= 0.50
     Davidson diagonalization with overlap
     ethr =  3.00E-04,  avg # of iterations =  1.7

     total cpu time spent up to now is      108.6 secs

     total energy              =     -90.42584906 Ry
     Harris-Foulkes estimate   =     -90.43138432 Ry
     estimated scf accuracy    <       0.04046386 Ry

     iteration #  7     ecut=    40.00 Ry     beta= 0.50
     Davidson diagonalization with overlap
     ethr =  1.26E-04,  avg # of iterations =  2.8

     total cpu time spent up to now is      110.7 secs

     total energy              =     -90.42522682 Ry
     Harris-Foulkes estimate   =     -90.42762396 Ry
     estimated scf accuracy    <       0.01104838 Ry

     iteration #  8     ecut=    40.00 Ry     beta= 0.50
     Davidson diagonalization with overlap
     ethr =  3.45E-05,  avg # of iterations =  3.3

     total cpu time spent up to now is      113.2 secs

     total energy              =     -90.42681048 Ry
     Harris-Foulkes estimate   =     -90.42689390 Ry
     estimated scf accuracy    <       0.00039823 Ry

     iteration #  9     ecut=    40.00 Ry     beta= 0.50
     Davidson diagonalization with overlap
     ethr =  1.24E-06,  avg # of iterations =  3.4

     total cpu time spent up to now is      116.1 secs

     total energy              =     -90.42686602 Ry
     Harris-Foulkes estimate   =     -90.42691241 Ry
     estimated scf accuracy    <       0.00022561 Ry

     iteration # 10     ecut=    40.00 Ry     beta= 0.50
     Davidson diagonalization with overlap
     ethr =  7.05E-07,  avg # of iterations =  1.2

     total cpu time spent up to now is      117.6 secs

     total energy              =     -90.42688610 Ry
     Harris-Foulkes estimate   =     -90.42688720 Ry
     estimated scf accuracy    <       0.00000639 Ry

     iteration # 11     ecut=    40.00 Ry     beta= 0.50
     Davidson diagonalization with overlap
     ethr =  2.00E-08,  avg # of iterations =  3.2

     total cpu time spent up to now is      120.4 secs

     total energy              =     -90.42688811 Ry
     Harris-Foulkes estimate   =     -90.42688805 Ry
     estimated scf accuracy    <       0.00000048 Ry

     iteration # 12     ecut=    40.00 Ry     beta= 0.50
     Davidson diagonalization with overlap
     ethr =  1.49E-09,  avg # of iterations =  2.6

     total cpu time spent up to now is      122.7 secs

     End of self-consistent calculation

          k = 0.0000 0.0000 0.0000 (  2333 PWs)   bands (ev):

   -12.6771 -11.2791 -10.6139  -7.0629  -5.6867  -2.3352  -0.5966   0.5559
     0.8606   0.8854   1.9354   2.1398   2.4931   3.4893   6.0765   8.1695
     8.5683   9.1446  10.8976  11.1633

          k = 0.0001-0.0002 0.7271 (  2290 PWs)   bands (ev):

   -11.5930 -10.2363  -9.6159  -6.3609  -4.9531  -3.1346  -1.7899  -1.2000
    -1.0181  -0.6418   0.8799   1.9595   3.2970   4.2005   5.9778   6.2825
     6.8961   8.6200   9.1266  10.9626

          k =-0.0001 0.0003-1.4542 (  2306 PWs)   bands (ev):

    -8.9623  -8.4217  -7.3972  -7.1965  -6.1347  -5.9828  -3.1233  -3.1036
    -1.5324  -1.3127   0.6550   4.0559   4.1263   4.6546   5.0720   5.5798
     6.8469   6.9065   7.9562   9.6829

          k =-0.0024-1.0378-0.0004 (  2280 PWs)   bands (ev):

   -12.2012 -11.1218 -10.3055  -7.3529  -5.6007  -3.8506  -1.0531  -0.6503
     0.4648   0.7379   0.9841   1.9691   2.5582   4.7529   6.2910   7.6137
     9.0174   9.9271  10.8357  11.8109

          k =-0.0023-1.0380 0.7267 (  2298 PWs)   bands (ev):

   -11.1415 -10.0895  -9.3234  -6.5927  -4.8712  -3.3828  -2.3256  -1.2294
    -1.0524  -0.7485  -0.0965   1.0357   1.8370   5.1382   5.3192   6.2647
     7.4796   7.9242   9.3297  11.1611

          k =-0.0025-1.0375-1.4546 (  2286 PWs)   bands (ev):

    -8.5274  -8.1846  -7.2815  -6.9971  -5.9001  -5.8553  -3.3712  -3.2158
    -1.4568  -1.4511  -0.3367   2.4020   3.0650   4.0770   5.1129   5.5829
     5.9242   6.3727   7.4509   9.7350

          k =-0.4457 0.0083 0.0000 (  2302 PWs)   bands (ev):

   -12.5757 -11.7513  -9.8629  -8.0921  -4.1217  -3.4946  -0.6863   0.9176
     0.9623   1.1232   1.5655   1.7216   2.6798   4.1200   6.0018   7.4339
     8.4856   8.9675  11.0770  11.6967

          k =-0.4456 0.0081 0.7271 (  2304 PWs)   bands (ev):

   -11.4887 -10.7131  -8.8572  -7.3034  -3.7665  -3.2170  -2.4431  -1.6763
    -0.8567  -0.3075   1.0384   2.1655   2.6972   4.8778   5.4820   6.2624
     7.5885   8.1832   8.5457  11.5076

          k =-0.4458 0.0086-1.4542 (  2298 PWs)   bands (ev):

[...]

     iteration #  6     ecut=    40.00 Ry     beta= 0.50
     Davidson diagonalization with overlap
     ethr =  1.05E-06,  avg # of iterations =  2.7

     total cpu time spent up to now is     2626.1 secs

     total energy              =     -90.73253782 Ry
     Harris-Foulkes estimate   =     -90.73254790 Ry
     estimated scf accuracy    <       0.00004893 Ry

     iteration #  7     ecut=    40.00 Ry     beta= 0.50
     Davidson diagonalization with overlap
     ethr =  1.53E-07,  avg # of iterations =  1.5

     total cpu time spent up to now is     2635.0 secs

     total energy              =     -90.73254402 Ry
     Harris-Foulkes estimate   =     -90.73254524 Ry
     estimated scf accuracy    <       0.00000651 Ry

     iteration #  8     ecut=    40.00 Ry     beta= 0.50
     Davidson diagonalization with overlap
     ethr =  2.03E-08,  avg # of iterations =  2.2

     total cpu time spent up to now is     2645.9 secs

     total energy              =     -90.73254514 Ry
     Harris-Foulkes estimate   =     -90.73254522 Ry
     estimated scf accuracy    <       0.00000089 Ry

     iteration #  9     ecut=    40.00 Ry     beta= 0.50
     Davidson diagonalization with overlap
     ethr =  2.78E-09,  avg # of iterations =  2.2

     total cpu time spent up to now is     2656.9 secs

     End of self-consistent calculation

          k = 0.0000 0.0000 0.0000 (  2333 PWs)   bands (ev):

   -13.5472 -12.3913 -11.6283  -8.2281  -7.7773  -3.4232  -2.4800  -0.8057
    -0.1087  -0.0222   0.7291   0.8516   1.0030   1.7930   4.2368   5.2264
     7.9233   9.8849  10.2350  10.8060

          k = 0.0036-0.1178 0.7616 (  2290 PWs)   bands (ev):

   -12.4151 -11.3694 -10.5130  -7.7825  -6.7066  -3.6887  -3.4234  -2.4343
    -2.2619  -1.2990  -0.3575   0.3944   0.6285   2.2353   4.3588   4.9715
     6.0389   6.6781  10.0266  11.1527

          k =-0.0072 0.2356-1.5233 (  2306 PWs)   bands (ev):

    -9.3328  -9.2933  -8.9976  -8.0082  -7.5129  -6.4151  -5.0444  -4.0946
    -3.0256  -2.7084  -1.7086   2.1132   2.4692   3.3568   3.5043   4.0061
     5.0558   5.5700   8.1310  10.0418

          k = 0.0008-0.9106 0.1314 (  2280 PWs)   bands (ev):

   -13.2357 -12.6474 -11.0576  -9.5351  -6.3075  -5.0842  -2.1618  -1.4867
    -0.8172  -0.0940   0.3214   1.1821   1.6092   1.7845   3.4556   7.8220
     8.3368   9.6552   9.8251  12.4658

          k = 0.0043-1.0284 0.8930 (  2298 PWs)   bands (ev):

   -12.2089 -11.5349 -10.1384  -8.5190  -5.9585  -4.4849  -3.5203  -2.2648
    -1.8297  -1.2598  -0.8617  -0.3614   0.0586   2.9035   4.0359   5.0630
     6.5640   7.6845   9.3452  11.7230

          k =-0.0064-0.6751-1.3919 (  2286 PWs)   bands (ev):

    -9.4512  -9.1855  -8.8374  -8.3093  -7.3202  -6.4195  -4.9776  -4.3518
    -2.8299  -2.6115  -1.8359   2.0784   2.3804   3.3626   3.4392   4.0331
     4.9715   5.8429   8.0735  10.1122

          k =-0.4493 0.0152-0.0060 (  2302 PWs)   bands (ev):

   -13.4379 -12.8012 -10.9635  -9.4443  -6.2067  -4.9574  -1.2067  -0.8926
    -0.0909  -0.0518   0.3322   1.1740   1.2135   1.6083   2.8760   7.1766
     8.3226   8.9453   9.6161  10.3517

          k =-0.4457-0.1025 0.7556 (  2304 PWs)   bands (ev):

   -12.3261 -11.6842 -10.0217  -8.4835  -5.9184  -4.3651  -3.4531  -2.2753
    -1.8561  -1.2597  -0.6398   0.1013   1.1829   2.0661   3.8141   5.0343
     6.4971   7.4899   8.5284  11.7220

          k =-0.4565 0.2508-1.5293 (  2298 PWs)   bands (ev):

    -9.4021  -9.2199  -8.8923  -8.3321  -7.2571  -6.3859  -5.0123  -4.3545
    -2.8504  -2.6307  -1.8178   2.0967   2.4540   3.3600   3.5494   4.0606
     5.1058   5.5354   7.9672  10.1653

          k =-0.4486-0.8954 0.1253 (  2276 PWs)   bands (ev):

   -13.3041 -12.3720 -11.5682  -8.3671  -7.9599  -3.4132  -2.5290  -2.3486
    -0.2506  -0.0592   0.2954   0.8927   0.9773   1.8147   5.1248   6.3389
     7.9470  10.2349  10.6702  11.8250

          k =-0.4450-1.0132 0.8870 (  2283 PWs)   bands (ev):

   -12.2354 -11.4110 -10.4147  -7.9095  -6.8326  -3.6557  -3.4461  -2.4799
    -2.3026  -1.2679  -1.0304  -0.1151   0.9944   1.4388   4.8072   5.4509
     6.5813   6.9620   9.7689  11.3000

          k =-0.4557-0.6598-1.3979 (  2296 PWs)   bands (ev):

    -9.3279  -9.1590  -9.1366  -8.0491  -7.4702  -6.3582  -5.0898  -4.1015
    -3.0373  -2.7485  -1.6520   2.0872   2.3399   3.3238   3.5118   4.0470
     5.3579   5.4652   7.9293  10.1812

     the Fermi energy is     5.3886 ev

!    total energy              =     -90.73254528 Ry
     Harris-Foulkes estimate   =     -90.73254530 Ry
     estimated scf accuracy    <       0.00000009 Ry

     The total energy is the sum of the following terms:

     one-electron contribution =     -34.09703107 Ry
     hartree contribution      =      31.38646845 Ry
     xc contribution           =     -27.63869009 Ry
     ewald contribution        =     -60.38529504 Ry
     smearing contrib. (-TS)   =       0.00200248 Ry

     convergence has been achieved in   9 iterations

     Forces acting on atoms (cartesian axes, Ry/au):

     atom    1 type  1   force =    -0.00821060    0.00970492    0.02351789
     atom    2 type  1   force =    -0.01820512    0.02520014   -0.00388734
     atom    3 type  1   force =    -0.02481625    0.00197937   -0.00748462
     atom    4 type  1   force =     0.00966712   -0.02488174   -0.00673406
     atom    5 type  1   force =     0.03022450    0.00139992    0.00524140
     atom    6 type  1   force =    -0.00589369   -0.01793441    0.01606390
     atom    7 type  1   force =     0.00246358    0.01545476   -0.01783598
     atom    8 type  1   force =     0.01477045   -0.01092296   -0.00888119

     Total force =     0.075278     Total SCF correction =     0.000354


     Computing stress (Cartesian axis) and pressure

          total   stress  (Ry/bohr**3)                   (kbar)     P=        3.59
   0.00012169   0.00002733   0.00002430           17.90        4.02        3.57
   0.00002733  -0.00008212  -0.00004669            4.02      -12.08       -6.87
   0.00002430  -0.00004669   0.00003366            3.57       -6.87        4.95


     number of scf cycles    =  39
     number of bfgs steps    =  38

     enthalpy old            =     -90.7243468790 Ry
     enthalpy new            =     -90.7325091642 Ry

     CASE: enthalpy_new < enthalpy_old

     new trust radius        =       0.1358940151 bohr
     new conv_thr            =       0.0000003022 Ry

     new unit-cell volume =    545.00771 a.u.^3 (    80.76181 Ang^3 )
     density =      1.97385 g/cm^3

CELL_PARAMETERS (bohr)
  15.358942915   0.040154483  -0.090518244
   0.258268363   7.823839776   1.151509587
  -0.043577368   0.621996352   4.627799477

ATOMIC_POSITIONS (crystal)
C             0.2996343454        0.4572000363        0.4957056114
C             0.2059250224        0.5315245668        0.9660632372
C             0.7185867946        0.2694664032        0.1053363747
C             0.8666413737        0.0696305748        0.2139323839
C             0.4632779293        0.3911138435        0.5324359067
C             0.6338788907        0.3337213299        0.5627281345
C             0.0661807640        0.7104743113        0.9087506350
C             0.9350338797       -0.0541070657        0.7804667166



     Writing output data file ./pp.save/
     NEW-OLD atomic charge density approx. for the potential
     extrapolated charge   32.80830, renormalised to   32.00000

     total cpu time spent up to now is     2657.4 secs

     Self-consistent Calculation

     iteration #  1     ecut=    40.00 Ry     beta= 0.50
     Davidson diagonalization with overlap
     c_bands:  1 eigenvalues not converged
     ethr =  1.00E-06,  avg # of iterations = 14.4

     total cpu time spent up to now is     2705.2 secs

     total energy              =     -90.69464590 Ry
     Harris-Foulkes estimate   =     -90.01114361 Ry
     estimated scf accuracy    <       0.04827378 Ry

     iteration #  2     ecut=    40.00 Ry     beta= 0.50
     Davidson diagonalization with overlap
     ethr =  1.51E-04,  avg # of iterations =  5.8

     total cpu time spent up to now is     2727.5 secs

     total energy              =     -90.69625345 Ry
     Harris-Foulkes estimate   =     -90.83098912 Ry
     estimated scf accuracy    <       0.88270105 Ry

     iteration #  3     ecut=    40.00 Ry     beta= 0.50
     Davidson diagonalization with overlap
     ethr =  1.51E-04,  avg # of iterations =  4.4

     total cpu time spent up to now is     2744.3 secs

     total energy              =     -90.73854848 Ry
     Harris-Foulkes estimate   =     -90.74430931 Ry
     estimated scf accuracy    <       0.02755471 Ry

     iteration #  4     ecut=    40.00 Ry     beta= 0.50
     Davidson diagonalization with overlap
     ethr =  8.61E-05,  avg # of iterations =  1.7

     total cpu time spent up to now is     2753.9 secs

     total energy              =     -90.73859423 Ry
     Harris-Foulkes estimate   =     -90.74099956 Ry
     estimated scf accuracy    <       0.01839918 Ry

     iteration #  5     ecut=    40.00 Ry     beta= 0.50
     Davidson diagonalization with overlap
     ethr =  5.75E-05,  avg # of iterations =  1.0

     total cpu time spent up to now is     2761.9 secs

     total energy              =     -90.73886548 Ry
     Harris-Foulkes estimate   =     -90.73958212 Ry
     estimated scf accuracy    <       0.00292309 Ry

     iteration #  6     ecut=    40.00 Ry     beta= 0.50
     Davidson diagonalization with overlap
     ethr =  9.13E-06,  avg # of iterations =  3.4

     total cpu time spent up to now is     2775.4 secs

     total energy              =     -90.73895393 Ry
     Harris-Foulkes estimate   =     -90.73915247 Ry
     estimated scf accuracy    <       0.00071671 Ry

     iteration #  7     ecut=    40.00 Ry     beta= 0.50
     Davidson diagonalization with overlap
     ethr =  2.24E-06,  avg # of iterations =  4.2

     total cpu time spent up to now is     2790.9 secs

     total energy              =     -90.73904566 Ry
     Harris-Foulkes estimate   =     -90.73905739 Ry
     estimated scf accuracy    <       0.00003310 Ry

     iteration #  8     ecut=    40.00 Ry     beta= 0.50
     Davidson diagonalization with overlap
     ethr =  1.03E-07,  avg # of iterations =  2.8

     total cpu time spent up to now is     2804.5 secs

     total energy              =     -90.73905597 Ry
     Harris-Foulkes estimate   =     -90.73905724 Ry
     estimated scf accuracy    <       0.00000510 Ry

     iteration #  9     ecut=    40.00 Ry     beta= 0.50
     Davidson diagonalization with overlap
     ethr =  1.59E-08,  avg # of iterations =  2.1

     total cpu time spent up to now is     2815.6 secs

     total energy              =     -90.73905630 Ry
     Harris-Foulkes estimate   =     -90.73905780 Ry
     estimated scf accuracy    <       0.00001112 Ry

     iteration # 10     ecut=    40.00 Ry     beta= 0.50
     Davidson diagonalization with overlap
     ethr =  1.59E-08,  avg # of iterations =  1.0

     total cpu time spent up to now is     2823.7 secs

     End of self-consistent calculation

          k = 0.0000 0.0000 0.0000 (  2333 PWs)   bands (ev):

   -13.7360 -12.5546 -11.8965  -8.4978  -8.0182  -3.6821  -2.7434  -1.0851
    -0.3601  -0.2517   0.2592   0.6944   0.8188   1.4861   4.0228   5.0629
     7.6124   9.5808   9.9822  10.7132

          k = 0.0048-0.1116 0.7569 (  2290 PWs)   bands (ev):

   -12.6181 -11.5471 -10.7859  -8.0346  -6.9780  -3.9266  -3.7216  -2.6624
    -2.4863  -1.5882  -0.5593   0.1156   0.4600   1.8355   4.1742   4.6957
     5.8346   6.4288   9.9023  10.8543

          k =-0.0095 0.2231-1.5137 (  2306 PWs)   bands (ev):

    -9.6004  -9.5224  -9.2101  -8.2383  -7.7703  -6.7160  -5.2386  -4.3518
    -3.2802  -2.8942  -1.9831   1.9266   2.2785   3.0100   3.3002   3.7499
     4.8420   5.2911   7.7604   9.9325

          k = 0.0031-0.8954 0.1204 (  2280 PWs)   bands (ev):

   -13.4612 -12.8458 -11.3216  -9.7444  -6.5382  -5.3227  -2.2824  -1.7298
    -1.0906  -0.4194   0.1182   1.0842   1.2122   1.5213   3.1530   7.5607
     8.0007   9.4193   9.5002  12.4988

          k = 0.0078-1.0070 0.8772 (  2298 PWs)   bands (ev):

   -12.4302 -11.7413 -10.3960  -8.7623  -6.1859  -4.7570  -3.7835  -2.4136
    -2.1243  -1.5760  -1.0098  -0.6041  -0.1327   2.6033   3.7266   4.7724
     6.3256   7.4636   9.0154  11.6018

          k =-0.0065-0.6723-1.3934 (  2286 PWs)   bands (ev):

    -9.6788  -9.3851  -9.1405  -8.4985  -7.5720  -6.7254  -5.2151  -4.5571
    -3.1003  -2.7967  -2.1231   1.8262   2.1638   3.0212   3.2292   3.8020
     4.7269   5.5263   7.7197   9.9985

          k =-0.4471 0.0157-0.0063 (  2302 PWs)   bands (ev):

   -13.6346 -12.9711 -11.2353  -9.6748  -6.4618  -5.2262  -1.5195  -1.0847
    -0.3949  -0.3720   0.0547   0.9658   1.0933   1.2079   2.6925   7.0160
     7.9923   8.6678   9.3862  10.0386

          k =-0.4424-0.0959 0.7506 (  2304 PWs)   bands (ev):

   -12.5369 -11.8630 -10.2965  -8.7317  -6.1529  -4.6688  -3.7359  -2.4296
    -2.1269  -1.5774  -0.8168  -0.1037   0.8282   1.8295   3.5631   4.7555
     6.2774   7.2904   8.3084  11.4761

          k =-0.4566 0.2388-1.5201 (  2298 PWs)   bands (ev):

    -9.6609  -9.4358  -9.1542  -8.5220  -7.5172  -6.7080  -5.2402  -4.5484
    -3.1107  -2.8154  -2.1030   1.9023   2.2895   3.0018   3.3129   3.7996
     4.8829   5.2820   7.6471  10.1205

          k =-0.4441-0.8797 0.1141 (  2276 PWs)   bands (ev):

   -13.5339 -12.5250 -11.8696  -8.5986  -8.1614  -3.6851  -2.7640  -2.5012
    -0.4535  -0.3884   0.0318   0.6909   0.8027   1.5042   4.7388   6.0546
     7.6282   9.9782  10.6619  11.5589

          k =-0.4393-0.9913 0.8709 (  2283 PWs)   bands (ev):

   -12.4661 -11.5730 -10.7193  -8.1302  -7.0757  -3.9030  -3.7439  -2.6874
    -2.5269  -1.5658  -1.1832  -0.3538   0.7540   1.2017   4.5511   5.0947
     6.3215   6.6334   9.6386  11.0617

          k =-0.4536-0.6566-1.3997 (  2296 PWs)   bands (ev):

    -9.5658  -9.4221  -9.3271  -8.2687  -7.7385  -6.6719  -5.2815  -4.3506
    -3.2932  -2.9270  -1.9466   1.8367   2.1220   3.0085   3.3079   3.7760
     5.0722   5.1826   7.6206  10.0754

     the Fermi energy is     5.1086 ev

!    total energy              =     -90.73905689 Ry
     Harris-Foulkes estimate   =     -90.73905697 Ry
     estimated scf accuracy    <       0.00000015 Ry

     The total energy is the sum of the following terms:

     one-electron contribution =     -36.86080921 Ry
     hartree contribution      =      32.46326371 Ry
     xc contribution           =     -27.61432452 Ry
     ewald contribution        =     -58.72884431 Ry
     smearing contrib. (-TS)   =       0.00165744 Ry

     convergence has been achieved in  10 iterations

     Forces acting on atoms (cartesian axes, Ry/au):

     atom    1 type  1   force =     0.02580460    0.00725487    0.01438276
     atom    2 type  1   force =     0.02899267   -0.00295550   -0.00201220
     atom    3 type  1   force =     0.00318334   -0.02300500   -0.02083051
     atom    4 type  1   force =    -0.00403602   -0.00217400    0.00577152
     atom    5 type  1   force =    -0.01952477    0.01056779   -0.00136869
     atom    6 type  1   force =    -0.01521066   -0.00955548    0.03568946
     atom    7 type  1   force =    -0.02358076    0.01474297   -0.02361905
     atom    8 type  1   force =     0.00437159    0.00512435   -0.00801329

     Total force =     0.079614     Total SCF correction =     0.000749


     Computing stress (Cartesian axis) and pressure

          total   stress  (Ry/bohr**3)                   (kbar)     P=       -5.98
  -0.00003149  -0.00001474  -0.00005435           -4.63       -2.17       -7.99
  -0.00001474  -0.00000806   0.00003126           -2.17       -1.19        4.60
  -0.00005435   0.00003126  -0.00008241           -7.99        4.60      -12.12


     number of scf cycles    =  40
     number of bfgs steps    =  39

     enthalpy old            =     -90.7325091642 Ry
     enthalpy new            =     -90.7390198429 Ry

     CASE: enthalpy_new < enthalpy_old

     new trust radius        =       0.1342984108 bohr
     new conv_thr            =       0.0000003569 Ry

     new unit-cell volume =    554.25566 a.u.^3 (    82.13221 Ang^3 )
     density =      1.94092 g/cm^3

CELL_PARAMETERS (bohr)
  15.387856066   0.031837275  -0.133045658
   0.252803998   7.923335837   1.129826220
  -0.054441465   0.593928142   4.631590103

ATOMIC_POSITIONS (crystal)
C             0.3021712201        0.4646495380        0.5072918538
C             0.2077616924        0.5432438059        0.9720891447
C             0.7168916422        0.2558191738        0.1008079657
C             0.8628975636        0.0570413538        0.2111081143
C             0.4623700940        0.3935615954        0.5385426104
C             0.6326779433        0.3258778834        0.5670665531
C             0.0703152412        0.7253698138        0.8967780586
C             0.9340736033       -0.0565391642        0.7717346995



     Writing output data file ./pp.save/
     NEW-OLD atomic charge density approx. for the potential
     extrapolated charge   32.53393, renormalised to   32.00000

     total cpu time spent up to now is     2824.5 secs

     Self-consistent Calculation

     iteration #  1     ecut=    40.00 Ry     beta= 0.50
     Davidson diagonalization with overlap
     c_bands:  1 eigenvalues not converged
     ethr =  1.00E-06,  avg # of iterations = 12.2

     total cpu time spent up to now is     2870.2 secs

     total energy              =     -90.71737531 Ry
     Harris-Foulkes estimate   =     -90.23838891 Ry
     estimated scf accuracy    <       0.03763653 Ry

     iteration #  2     ecut=    40.00 Ry     beta= 0.50
     Davidson diagonalization with overlap
     ethr =  1.18E-04,  avg # of iterations =  5.8

     total cpu time spent up to now is     2892.4 secs

     total energy              =     -90.70585045 Ry
     Harris-Foulkes estimate   =     -90.81107434 Ry
     estimated scf accuracy    <       0.68956940 Ry

     iteration #  3     ecut=    40.00 Ry     beta= 0.50
     Davidson diagonalization with overlap
     ethr =  1.18E-04,  avg # of iterations =  4.4

     total cpu time spent up to now is     2909.5 secs

     total energy              =     -90.74341316 Ry
     Harris-Foulkes estimate   =     -90.74656129 Ry
     estimated scf accuracy    <       0.01094225 Ry

     iteration #  4     ecut=    40.00 Ry     beta= 0.50
     Davidson diagonalization with overlap
     ethr =  3.42E-05,  avg # of iterations =  3.6

     total cpu time spent up to now is     2923.8 secs

     total energy              =     -90.74379038 Ry
     Harris-Foulkes estimate   =     -90.74513514 Ry
     estimated scf accuracy    <       0.00648489 Ry

     iteration #  5     ecut=    40.00 Ry     beta= 0.50
     Davidson diagonalization with overlap
     ethr =  2.03E-05,  avg # of iterations =  2.0

     total cpu time spent up to now is     2934.3 secs

     total energy              =     -90.74421932 Ry
     Harris-Foulkes estimate   =     -90.74451723 Ry
     estimated scf accuracy    <       0.00082531 Ry

     iteration #  6     ecut=    40.00 Ry     beta= 0.50
     Davidson diagonalization with overlap
     ethr =  2.58E-06,  avg # of iterations =  3.6

     total cpu time spent up to now is     2948.8 secs

     total energy              =     -90.74434326 Ry
     Harris-Foulkes estimate   =     -90.74438858 Ry
     estimated scf accuracy    <       0.00014717 Ry

     iteration #  7     ecut=    40.00 Ry     beta= 0.50
     Davidson diagonalization with overlap
     ethr =  4.60E-07,  avg # of iterations =  1.9

     total cpu time spent up to now is     2959.4 secs

     total energy              =     -90.74436777 Ry
     Harris-Foulkes estimate   =     -90.74437325 Ry
     estimated scf accuracy    <       0.00001913 Ry

     iteration #  8     ecut=    40.00 Ry     beta= 0.50
     Davidson diagonalization with overlap
