
     Program PWSCF v.6.5 starts on  9Jul2022 at 14: 5:17 

     This program is part of the open-source Quantum ESPRESSO suite
     for quantum simulation of materials; please cite
         "P. Giannozzi et al., J. Phys.:Condens. Matter 21 395502 (2009);
         "P. Giannozzi et al., J. Phys.:Condens. Matter 29 465901 (2017);
          URL http://www.quantum-espresso.org", 
     in publications or presentations arising from this work. More details at
     http://www.quantum-espresso.org/quote

     Parallel version (MPI), running on    96 processors

     MPI processes distributed on     2 nodes
     R & G space division:  proc/nbgrp/npool/nimage =      96
     Waiting for input...
     Reading input from standard input
     Message from routine read_cards :
     DEPRECATED: no units specified in CELL_PARAMETERS card

     Current dimensions of program PWSCF are:
     Max number of different atomic species (ntypx) = 10
     Max number of k-points (npk) =  40000
     Max angular momentum in pseudopotentials (lmaxx) =  3

     Subspace diagonalization in iterative solution of the eigenvalue problem:
     one sub-group per band group will be used
     scalapack distributed-memory algorithm (size of sub-group:  9*  9 procs)

 
     Parallelization info
     --------------------
     sticks:   dense  smooth     PW     G-vecs:    dense   smooth      PW
     Min          15      15      4                  189      189      32
     Max          16      16      5                  192      192      35
     Sum        1457    1457    457                18323    18323    3203
 


     bravais-lattice index     =            0
     lattice parameter (alat)  =      14.7261  a.u.
     unit-cell volume          =     534.5633 (a.u.)^3
     number of atoms/cell      =            8
     number of atomic types    =            1
     number of electrons       =        32.00
     number of Kohn-Sham states=           20
     kinetic-energy cutoff     =      40.0000  Ry
     charge density cutoff     =     160.0000  Ry
     convergence threshold     =      1.0E-06
     mixing beta               =       0.5000
     number of iterations used =            8  plain     mixing
     Exchange-correlation=  SLA  PW   PBE  PBE
                           (   1   4   3   4   0   0   0)
     nstep                     =          250


     celldm(1)=  14.726074  celldm(2)=   0.000000  celldm(3)=   0.000000
     celldm(4)=   0.000000  celldm(5)=   0.000000  celldm(6)=   0.000000

     crystal axes: (cart. coord. in units of alat)
               a(1) = (   0.999547   0.030103  -0.000048 )  
               a(2) = (   0.025159   0.528844   0.000170 )  
               a(3) = (   0.000034  -0.000068   0.317125 )  

     reciprocal axes: (cart. coord. in units 2 pi/alat)
               b(1) = (  1.001889 -0.047664 -0.000117 )  
               b(2) = ( -0.057030  1.893629  0.000412 )  
               b(3) = (  0.000181 -0.001021  3.153335 )  


     PseudoPot. # 1 for C  read from file:
     ./C.pbe-van_bm.upf
     MD5 check sum: 1a69bf6b8db32088f5b2163dbdb77a27
     Pseudo is Ultrasoft, Zval =  4.0
     Generated by new atomic code, or converted to UPF format
     Using radial grid of  721 points,  4 beta functions with: 
                l(1) =   0
                l(2) =   0
                l(3) =   1
                l(4) =   1
     Q(r) pseudized with  8 coefficients,  rinner =    0.800   0.800   0.800


     atomic species   valence    mass     pseudopotential
        C              4.00    12.00000     C ( 1.00)

     No symmetry found



   Cartesian axes

     site n.     atom                  positions (alat units)
         1           C   tau(   1) = (   0.4895880   0.5239342  -0.1888438  )
         2           C   tau(   2) = (   0.8117320   0.3596239   0.1282177  )
         3           C   tau(   3) = (  -0.0227801   0.2443515   0.1281667  )
         4           C   tau(   4) = (   0.2994526   0.0801833   0.4452806  )
         5           C   tau(   5) = (   1.0553631   0.2349527   0.2866604  )
         6           C   tau(   6) = (   0.7331967   0.3990830   0.2867735  )
         7           C   tau(   7) = (   0.2209117   0.1196285   0.6038576  )
         8           C   tau(   8) = (   0.5429859  -0.0444533  -0.0304806  )

     number of k points=    14  Marzari-Vanderbilt smearing, width (Ry)=  0.0200
                       cart. coord. in units 2pi/alat
        k(    1) = (   0.0000000   0.0000000   0.0000000), wk =   0.0833333
        k(    2) = (   0.0000452  -0.0002552   0.7883337), wk =   0.1666667
        k(    3) = (  -0.0000904   0.0005104  -1.5766673), wk =   0.0833333
        k(    4) = (  -0.0190100   0.6312096   0.0001372), wk =   0.1666667
        k(    5) = (  -0.0189648   0.6309544   0.7884709), wk =   0.1666667
        k(    6) = (  -0.0191003   0.6317200  -1.5765301), wk =   0.1666667
        k(    7) = (  -0.0190551   0.6314648  -0.7881965), wk =   0.1666667
        k(    8) = (  -0.5009444   0.0238321   0.0000587), wk =   0.0833333
        k(    9) = (  -0.5008993   0.0235769   0.7883924), wk =   0.1666667
        k(   10) = (  -0.5010348   0.0243426  -1.5766086), wk =   0.0833333
        k(   11) = (  -0.5199544   0.6550417   0.0001959), wk =   0.1666667
        k(   12) = (  -0.5199092   0.6547865   0.7885296), wk =   0.1666667
        k(   13) = (  -0.5200448   0.6555522  -1.5764714), wk =   0.1666667
        k(   14) = (  -0.5199996   0.6552969  -0.7881377), wk =   0.1666667

     Dense  grid:    18323 G-vectors     FFT dimensions: (  60,  32,  20)

     Estimated max dynamical RAM per process >       2.57 MB

     Estimated total dynamical RAM >     247.17 MB

     Initial potential from superposition of free atoms

     starting charge   31.99968, renormalised to   32.00000
     Starting wfcs are   32 randomized atomic wfcs

     total cpu time spent up to now is        0.7 secs

     Self-consistent Calculation

     iteration #  1     ecut=    40.00 Ry     beta= 0.50
     Davidson diagonalization with overlap
     ethr =  1.00E-02,  avg # of iterations =  2.4

     total cpu time spent up to now is        1.5 secs

     total energy              =     -91.12036520 Ry
     Harris-Foulkes estimate   =     -91.49817778 Ry
     estimated scf accuracy    <       0.77698087 Ry

     iteration #  2     ecut=    40.00 Ry     beta= 0.50
     Davidson diagonalization with overlap
     ethr =  2.43E-03,  avg # of iterations =  2.1

     total cpu time spent up to now is        2.2 secs

     total energy              =     -91.14888946 Ry
     Harris-Foulkes estimate   =     -91.18140816 Ry
     estimated scf accuracy    <       0.07217882 Ry

     iteration #  3     ecut=    40.00 Ry     beta= 0.50
     Davidson diagonalization with overlap
     ethr =  2.26E-04,  avg # of iterations =  3.9

     total cpu time spent up to now is        3.1 secs

     total energy              =     -91.16020984 Ry
     Harris-Foulkes estimate   =     -91.16020331 Ry
     estimated scf accuracy    <       0.00201865 Ry

     iteration #  4     ecut=    40.00 Ry     beta= 0.50
     Davidson diagonalization with overlap
     ethr =  6.31E-06,  avg # of iterations =  5.8

     total cpu time spent up to now is        4.4 secs

     total energy              =     -91.16039669 Ry
     Harris-Foulkes estimate   =     -91.16045808 Ry
     estimated scf accuracy    <       0.00016056 Ry

     iteration #  5     ecut=    40.00 Ry     beta= 0.50
     Davidson diagonalization with overlap
     ethr =  5.02E-07,  avg # of iterations =  2.0

     total cpu time spent up to now is        5.0 secs

     total energy              =     -91.16042980 Ry
     Harris-Foulkes estimate   =     -91.16043123 Ry
     estimated scf accuracy    <       0.00000528 Ry

     iteration #  6     ecut=    40.00 Ry     beta= 0.50
     Davidson diagonalization with overlap
     ethr =  1.65E-08,  avg # of iterations =  2.4

     total cpu time spent up to now is        5.7 secs

     total energy              =     -91.16043044 Ry
     Harris-Foulkes estimate   =     -91.16043092 Ry
     estimated scf accuracy    <       0.00000134 Ry

     iteration #  7     ecut=    40.00 Ry     beta= 0.50
     Davidson diagonalization with overlap
     ethr =  4.20E-09,  avg # of iterations =  2.0

     total cpu time spent up to now is        6.4 secs

     End of self-consistent calculation

          k = 0.0000 0.0000 0.0000 (  2297 PWs)   bands (ev):

   -13.7568 -12.2421 -12.2418  -8.4834  -7.1928  -1.3933  -1.3930  -1.2419
    -0.8235   0.0561   0.0563   0.5015   0.5021   2.3947   3.0342   3.1726
     7.4304   9.3641  12.3403  12.3404

          k = 0.0000-0.0003 0.7883 (  2275 PWs)   bands (ev):

   -12.6604 -11.1714 -11.1712  -7.5615  -6.4097  -4.0848  -3.2639  -3.2635
    -0.7662  -0.7657  -0.6631   0.0388   0.9691   1.2975   1.2978   4.3836
     6.9265  10.7691  11.0227  11.0233

          k =-0.0001 0.0005-1.5767 (  2294 PWs)   bands (ev):

    -9.4851  -9.4840  -8.4515  -8.4514  -7.5301  -7.5298  -4.8402  -4.8387
    -2.9381  -2.9375  -0.4812  -0.4809   3.5202   3.5215   3.6431   3.6434
     7.4545   7.4555   8.2694   8.2709

          k =-0.0190 0.6312 0.0001 (  2301 PWs)   bands (ev):

   -13.5277 -12.9851 -11.1461  -9.6879  -5.7981  -3.6735  -1.6705  -1.5065
    -0.6571  -0.1928   0.7644   1.3340   1.5877   2.0816   2.3680   2.4745
     8.9720  11.0709  11.6518  12.8063

          k =-0.0190 0.6310 0.7885 (  2279 PWs)   bands (ev):

   -12.4382 -11.9063 -10.0991  -8.6966  -5.2925  -4.1431  -3.7298  -2.4781
    -2.2764  -1.2308  -0.3630  -0.1950   0.5609   1.0412   2.7533   3.5838
     8.0338   9.3923  12.5618  12.9071

          k =-0.0191 0.6317-1.5765 (  2276 PWs)   bands (ev):

    -9.2892  -9.2881  -8.8303  -8.8292  -6.8566  -6.8554  -5.6585  -5.6571
    -2.1211  -2.1204  -0.9820  -0.9814   3.1579   3.1591   3.1796   3.1804
     7.8223   7.8235   8.1145   8.1159

          k =-0.0191 0.6315-0.7882 (  2279 PWs)   bands (ev):

   -12.4381 -11.9063 -10.0991  -8.6967  -5.2926  -4.1429  -3.7296  -2.4785
    -2.2767  -1.2305  -0.3633  -0.1951   0.5613   1.0409   2.7532   3.5840
     8.0340   9.3926  12.5618  12.9081

          k =-0.5009 0.0238 0.0001 (  2276 PWs)   bands (ev):

   -13.3743 -13.3737 -10.4195 -10.4186  -4.7193  -4.7185  -0.9292  -0.9285
    -0.4707  -0.4701   1.7043   1.7054   1.7109   1.7122   1.7431   1.7443
     9.5057   9.5064  10.1568  10.1576

          k =-0.5009 0.0236 0.7884 (  2281 PWs)   bands (ev):

   -12.2834 -12.2828  -9.3988  -9.3979  -4.6558  -4.6550  -3.2095  -3.2089
    -1.7304  -1.7293   0.3412   0.3419   0.9234   0.9246   2.9225   2.9235
     8.6895   8.6905  11.5251  11.5261

          k =-0.5010 0.0243-1.5766 (  2304 PWs)   bands (ev):

    -9.1428  -9.1419  -9.1415  -9.1409  -6.2578  -6.2569  -6.2564  -6.2556
    -1.4904  -1.4899  -1.4892  -1.4879   3.5768   3.5775   3.5778   3.5787
     7.8453   7.8459   7.8470   7.8482

          k =-0.5200 0.6550 0.0002 (  2289 PWs)   bands (ev):

   -13.6179 -12.7000 -11.6539  -9.0086  -6.7085  -2.5399  -2.0983  -0.7702
    -0.3513  -0.3074   0.0893   0.1223   0.9233   2.3056   2.9933   3.3718
     8.2487  11.5065  12.0274  12.9212

          k =-0.5199 0.6548 0.7885 (  2284 PWs)   bands (ev):

   -12.5295 -11.6204 -10.5996  -8.0494  -5.9888  -3.9790  -3.7245  -2.7557
    -1.6237  -0.8506  -0.7711  -0.0329   0.8985   1.0081   1.3473   4.6438
     7.2363  10.3739  11.5879  12.8663

          k =-0.5200 0.6556-1.5765 (  2286 PWs)   bands (ev):

    -9.3788  -9.3776  -8.6061  -8.6052  -7.2734  -7.2725  -5.1476  -5.1461
    -2.6857  -2.6850  -0.6199  -0.6195   2.9070   2.9082   3.4919   3.4924
     7.3024   7.3026   8.6120   8.6136

          k =-0.5200 0.6553-0.7881 (  2284 PWs)   bands (ev):

   -12.5294 -11.6203 -10.5997  -8.0494  -5.9888  -3.9791  -3.7248  -2.7554
    -1.6234  -0.8507  -0.7713  -0.0332   0.8982   1.0083   1.3474   4.6438
     7.2366  10.3741  11.5880  12.8671

     the Fermi energy is     4.8747 ev

!    total energy              =     -91.16043065 Ry
     Harris-Foulkes estimate   =     -91.16043064 Ry
     estimated scf accuracy    <       0.00000002 Ry

     The total energy is the sum of the following terms:

     one-electron contribution =     -41.23958206 Ry
     hartree contribution      =      34.92081395 Ry
     xc contribution           =     -27.96959232 Ry
     ewald contribution        =     -56.87287675 Ry
     smearing contrib. (-TS)   =       0.00080652 Ry

     convergence has been achieved in   7 iterations

     Forces acting on atoms (cartesian axes, Ry/au):

     atom    1 type  1   force =    -0.03589244    0.02198277   -0.00015980
     atom    2 type  1   force =     0.03558506   -0.02181340   -0.00051399
     atom    3 type  1   force =    -0.03541101    0.02174842    0.00012798
     atom    4 type  1   force =     0.03583551   -0.02197698   -0.00005609
     atom    5 type  1   force =     0.03560710   -0.02182278    0.00023096
     atom    6 type  1   force =    -0.03569911    0.02191465    0.00036468
     atom    7 type  1   force =    -0.03570235    0.02185695   -0.00013247
     atom    8 type  1   force =     0.03567725   -0.02188963    0.00013873

     Total force =     0.118370     Total SCF correction =     0.000054


     Computing stress (Cartesian axis) and pressure

          total   stress  (Ry/bohr**3)                   (kbar)     P=        0.73
   0.00000198   0.00000912   0.00000000            0.29        1.34        0.00
   0.00000912   0.00001131  -0.00000001            1.34        1.66       -0.00
   0.00000000  -0.00000001   0.00000164            0.00       -0.00        0.24


     BFGS Geometry Optimization

     number of scf cycles    =   1
     number of bfgs steps    =   0

     enthalpy new            =     -91.1603943092 Ry

     new trust radius        =       0.0420896085 bohr
     new conv_thr            =       0.0000010000 Ry

     new unit-cell volume =    534.76009 a.u.^3 (    79.24327 Ang^3 )
     density =      2.01168 g/cm^3

CELL_PARAMETERS (bohr)
  14.720203372   0.446778882  -0.000699960
   0.372292357   7.790074018   0.002499082
   0.000499836  -0.001000779   4.670183767

ATOMIC_POSITIONS (crystal)
C             0.4630489057        0.9671037657       -0.5959701827
C             0.7986006386        0.6318111850        0.4039848869
C            -0.0369645837        0.4669967735        0.4039244615
C             0.2986532039        0.1319781930        1.4040809515
C             1.0486171626        0.3818999152        0.9039384066
C             0.7130262752        0.7169752721        0.9040941337
C             0.2130562455        0.2171308506        1.9040526799
C             0.5486321522       -0.1181099552       -0.0959403373



     Writing output data file ./pp.save/
     NEW-OLD atomic charge density approx. for the potential
     extrapolated charge   32.01178, renormalised to   32.00000

     total cpu time spent up to now is        6.6 secs

     Self-consistent Calculation

     iteration #  1     ecut=    40.00 Ry     beta= 0.50
     Davidson diagonalization with overlap
     ethr =  1.00E-06,  avg # of iterations =  6.6

     total cpu time spent up to now is        8.5 secs

     total energy              =     -91.15829340 Ry
     Harris-Foulkes estimate   =     -91.14733512 Ry
     estimated scf accuracy    <       0.00279666 Ry

     iteration #  2     ecut=    40.00 Ry     beta= 0.50
     Davidson diagonalization with overlap
     ethr =  8.74E-06,  avg # of iterations =  1.1

     total cpu time spent up to now is        9.0 secs

     total energy              =     -91.15829694 Ry
     Harris-Foulkes estimate   =     -91.15846461 Ry
     estimated scf accuracy    <       0.00033086 Ry

     iteration #  3     ecut=    40.00 Ry     beta= 0.50
     Davidson diagonalization with overlap
     ethr =  1.03E-06,  avg # of iterations =  2.0

     total cpu time spent up to now is        9.6 secs

     total energy              =     -91.15835978 Ry
     Harris-Foulkes estimate   =     -91.15836002 Ry
     estimated scf accuracy    <       0.00000620 Ry

     iteration #  4     ecut=    40.00 Ry     beta= 0.50
     Davidson diagonalization with overlap
     ethr =  1.94E-08,  avg # of iterations =  2.2

     total cpu time spent up to now is       10.4 secs

     total energy              =     -91.15836109 Ry
     Harris-Foulkes estimate   =     -91.15836086 Ry
     estimated scf accuracy    <       0.00000102 Ry

     iteration #  5     ecut=    40.00 Ry     beta= 0.50
     Davidson diagonalization with overlap
     ethr =  3.18E-09,  avg # of iterations =  1.4

     total cpu time spent up to now is       10.9 secs

     End of self-consistent calculation

          k = 0.0000 0.0000 0.0000 (  2297 PWs)   bands (ev):

   -13.7619 -12.2551 -12.2549  -8.3121  -7.5767  -1.7236  -1.7234  -1.2484
    -0.5292   0.0873   0.0875   0.8997   0.9001   2.4987   3.0550   3.3345
     6.9393   9.3585  12.3628  12.3629

          k = 0.0000-0.0003 0.7883 (  2275 PWs)   bands (ev):

   -12.6598 -11.1789 -11.1787  -7.3587  -6.8310  -3.8610  -3.2212  -3.2208
    -0.8328  -0.8324  -0.1878   0.0078   0.4411   1.2937   1.2942   4.6756
     6.5108  10.7564  11.0043  11.0044

          k =-0.0001 0.0005-1.5766 (  2294 PWs)   bands (ev):

    -9.4854  -9.4844  -8.5448  -8.5446  -7.3468  -7.3464  -4.5400  -4.5385
    -3.2801  -3.2796  -0.6386  -0.6384   3.3775   3.3786   3.4773   3.4781
     7.7125   7.7126   8.5272   8.5287

          k =-0.0192 0.6310 0.0001 (  2301 PWs)   bands (ev):

   -13.5340 -12.9944 -11.1616  -9.6901  -6.0204  -3.9232  -1.6724  -1.4983
    -0.3520   0.1456   0.3133   1.6686   1.8242   1.8788   2.5304   2.6833
     8.6154  10.8044  11.6486  12.8047

          k =-0.0191 0.6308 0.7884 (  2279 PWs)   bands (ev):

   -12.4387 -11.9098 -10.1094  -8.6941  -5.5024  -4.2141  -3.5200  -2.4066
    -2.1617  -0.9979  -0.3872  -0.2098   0.4002   0.7548   2.7775   3.6816
     7.8448   9.3263  12.5916  12.8471

          k =-0.0192 0.6315-1.5765 (  2276 PWs)   bands (ev):

    -9.2950  -9.2940  -8.8622  -8.8614  -6.7256  -6.7246  -5.5058  -5.5046
    -2.3145  -2.3138  -1.1398  -1.1393   3.0269   3.0279   3.0435   3.0443
     8.0636   8.0647   8.3620   8.3634

          k =-0.0192 0.6313-0.7882 (  2279 PWs)   bands (ev):

   -12.4387 -11.9098 -10.1094  -8.6942  -5.5022  -4.2145  -3.5202  -2.4062
    -2.1615  -0.9982  -0.3875  -0.2099   0.3998   0.7551   2.7776   3.6816
     7.8454   9.3261  12.5919  12.8482

          k =-0.5009 0.0239 0.0001 (  2276 PWs)   bands (ev):

   -13.3817 -13.3807 -10.4336 -10.4330  -4.9477  -4.9472  -0.9275  -0.9270
    -0.1524  -0.1521   1.1858   1.1882   1.8198   1.8201   2.2897   2.2906
     9.2069   9.2089  10.1541  10.1545

          k =-0.5009 0.0237 0.7884 (  2281 PWs)   bands (ev):

   -12.2851 -12.2842  -9.4083  -9.4076  -4.7968  -4.7960  -3.0635  -3.0631
    -1.5698  -1.5686   0.3160   0.3167   0.7108   0.7123   2.9837   2.9842
     8.5325   8.5337  11.5178  11.5185

          k =-0.5010 0.0244-1.5765 (  2304 PWs)   bands (ev):

    -9.1564  -9.1557  -9.1548  -9.1538  -6.1306  -6.1293  -6.1292  -6.1283
    -1.6574  -1.6569  -1.6562  -1.6553   3.4236   3.4237   3.4252   3.4264
     8.1002   8.1014   8.1020   8.1027

          k =-0.5201 0.6550 0.0002 (  2289 PWs)   bands (ev):

   -13.6236 -12.7108 -11.6693  -8.9678  -6.9633  -2.8243  -2.1015  -0.6929
    -0.4726  -0.3333   0.1331   0.4865   1.3642   2.3411   2.9492   3.6515
     7.7550  11.5164  11.8400  12.9121

          k =-0.5200 0.6547 0.7885 (  2284 PWs)   bands (ev):

   -12.5294 -11.6255 -10.6094  -8.0017  -6.2550  -3.7540  -3.7273  -2.6787
    -1.6317  -0.7944  -0.4989  -0.1449   0.6030   0.8838   1.3565   4.8655
     6.9279  10.3111  11.6029  12.8979

          k =-0.5202 0.6555-1.5764 (  2286 PWs)   bands (ev):

    -9.3810  -9.3800  -8.6652  -8.6645  -7.1218  -7.1211  -4.9306  -4.9293
    -2.9428  -2.9421  -0.7769  -0.7766   2.7890   2.7901   3.3325   3.3327
     7.5465   7.5473   8.8766   8.8781

          k =-0.5201 0.6552-0.7881 (  2284 PWs)   bands (ev):

   -12.5294 -11.6254 -10.6095  -8.0016  -6.2552  -3.7539  -3.7270  -2.6790
    -1.6321  -0.7947  -0.4987  -0.1445   0.6027   0.8837   1.3565   4.8658
     6.9280  10.3117  11.6026  12.8987

     the Fermi energy is     5.0901 ev

!    total energy              =     -91.15836107 Ry
     Harris-Foulkes estimate   =     -91.15836117 Ry
     estimated scf accuracy    <       0.00000011 Ry

     The total energy is the sum of the following terms:

     one-electron contribution =     -41.31882768 Ry
     hartree contribution      =      34.95614807 Ry
     xc contribution           =     -27.97018523 Ry
     ewald contribution        =     -56.82636294 Ry
     smearing contrib. (-TS)   =       0.00086670 Ry

     convergence has been achieved in   5 iterations

     Forces acting on atoms (cartesian axes, Ry/au):

     atom    1 type  1   force =     0.05042190   -0.02475142    0.00013843
     atom    2 type  1   force =    -0.05005448    0.02456049    0.00039264
     atom    3 type  1   force =     0.05000921   -0.02449129    0.00009268
     atom    4 type  1   force =    -0.05044835    0.02471795   -0.00013297
     atom    5 type  1   force =    -0.05006652    0.02452625    0.00005626
     atom    6 type  1   force =     0.05021594   -0.02460864   -0.00045982
     atom    7 type  1   force =     0.05027014   -0.02466485   -0.00000179
     atom    8 type  1   force =    -0.05034784    0.02471151   -0.00008543

     Total force =     0.158232     Total SCF correction =     0.000975


     Computing stress (Cartesian axis) and pressure

          total   stress  (Ry/bohr**3)                   (kbar)     P=        1.34
   0.00027808  -0.00014129   0.00000011           40.91      -20.78        0.02
  -0.00014129   0.00009380   0.00000000          -20.78       13.80        0.00
   0.00000011   0.00000000  -0.00034445            0.02        0.00      -50.67


     number of scf cycles    =   2
     number of bfgs steps    =   1

     enthalpy old            =     -91.1603943092 Ry
     enthalpy new            =     -91.1583247201 Ry

     CASE: enthalpy_new > enthalpy_old

     new trust radius        =       0.0183353841 bohr
     new conv_thr            =       0.0000010000 Ry

     new unit-cell volume =    534.64902 a.u.^3 (    79.22681 Ang^3 )
     density =      2.01209 g/cm^3

CELL_PARAMETERS (bohr)
  14.719750003   0.444815635  -0.000699983
   0.371280871   7.788790715   0.002499600
   0.000499928  -0.001000339   4.670080061

ATOMIC_POSITIONS (crystal)
C             0.4644671272        0.9654300870       -0.5959497636
C             0.7971945253        0.6334719119        0.4040458987
C            -0.0355652734        0.4653411490        0.4039100927
C             0.2972371780        0.1336513307        1.4040866222
C             1.0472101893        0.3835613587        0.9039093962
C             0.7144369518        0.7153069509        0.9040511690
C             0.2144669388        0.2154667176        1.9040697905
C             0.5472223631       -0.1164435058       -0.0959582056



     Writing output data file ./pp.save/
     NEW-OLD atomic charge density approx. for the potential
     extrapolated charge   31.99335, renormalised to   32.00000

     total cpu time spent up to now is       11.0 secs

     Self-consistent Calculation

     iteration #  1     ecut=    40.00 Ry     beta= 0.50
     Davidson diagonalization with overlap
     ethr =  1.00E-06,  avg # of iterations =  5.7

     total cpu time spent up to now is       12.6 secs

     total energy              =     -91.16351502 Ry
     Harris-Foulkes estimate   =     -91.17091492 Ry
     estimated scf accuracy    <       0.00093024 Ry

     iteration #  2     ecut=    40.00 Ry     beta= 0.50
     Davidson diagonalization with overlap
     ethr =  2.91E-06,  avg # of iterations =  1.1

     total cpu time spent up to now is       13.2 secs

     total energy              =     -91.16351750 Ry
     Harris-Foulkes estimate   =     -91.16357473 Ry
     estimated scf accuracy    <       0.00011108 Ry

     iteration #  3     ecut=    40.00 Ry     beta= 0.50
     Davidson diagonalization with overlap
     ethr =  3.47E-07,  avg # of iterations =  2.0

     total cpu time spent up to now is       13.9 secs

     total energy              =     -91.16353787 Ry
     Harris-Foulkes estimate   =     -91.16353993 Ry
     estimated scf accuracy    <       0.00000606 Ry

     iteration #  4     ecut=    40.00 Ry     beta= 0.50
     Davidson diagonalization with overlap
     ethr =  1.89E-08,  avg # of iterations =  2.1

     total cpu time spent up to now is       14.6 secs

     total energy              =     -91.16353930 Ry
     Harris-Foulkes estimate   =     -91.16353938 Ry
     estimated scf accuracy    <       0.00000126 Ry

     iteration #  5     ecut=    40.00 Ry     beta= 0.50
     Davidson diagonalization with overlap
     ethr =  3.92E-09,  avg # of iterations =  2.0

     total cpu time spent up to now is       15.3 secs

     End of self-consistent calculation

          k = 0.0000 0.0000 0.0000 (  2297 PWs)   bands (ev):

   -13.7577 -12.2458 -12.2457  -8.4099  -7.3570  -1.5366  -1.5366  -1.2427
    -0.6912   0.0723   0.0723   0.6791   0.6792   2.6811   2.8754   3.1636
     7.2176   9.3616  12.3510  12.3510

          k = 0.0000-0.0003 0.7883 (  2275 PWs)   bands (ev):

   -12.6584 -11.1721 -11.1720  -7.4744  -6.5902  -3.9857  -3.2334  -3.2333
    -0.8067  -0.8066  -0.4570   0.0275   0.7372   1.2988   1.2991   4.5094
     6.7472  10.7645  11.0130  11.0133

          k =-0.0001 0.0005-1.5766 (  2294 PWs)   bands (ev):

    -9.4806  -9.4804  -8.4864  -8.4863  -7.4498  -7.4498  -4.7101  -4.7098
    -3.0889  -3.0888  -0.5555  -0.5554   3.4615   3.4617   3.5735   3.5740
     7.5658   7.5664   8.3807   8.3809

          k =-0.0191 0.6311 0.0001 (  2301 PWs)   bands (ev):

   -13.5291 -12.9875 -11.1502  -9.6845  -5.8974  -3.7827  -1.6694  -1.5010
    -0.5200  -0.0412   0.5681   1.5505   1.6261   2.2132   2.3443   2.4416
     8.8136  10.9518  11.6518  12.8068

          k =-0.0190 0.6309 0.7885 (  2279 PWs)   bands (ev):

   -12.4366 -11.9057 -10.1002  -8.6893  -5.3861  -4.1643  -3.6390  -2.4570
    -2.2123  -1.1103  -0.3715  -0.1993   0.4759   0.8950   2.7680   3.6315
     7.9473   9.3605  12.5743  12.8845

          k =-0.0192 0.6316-1.5765 (  2276 PWs)   bands (ev):

    -9.2867  -9.2865  -8.8380  -8.8379  -6.7983  -6.7981  -5.5879  -5.5876
    -2.2124  -2.2123  -1.0566  -1.0565   3.1039   3.1044   3.1233   3.1235
     7.9267   7.9269   8.2215   8.2219

          k =-0.0191 0.6314-0.7882 (  2279 PWs)   bands (ev):

   -12.4365 -11.9057 -10.1001  -8.6894  -5.3860  -4.1643  -3.6390  -2.4570
    -2.2124  -1.1102  -0.3718  -0.1994   0.4760   0.8950   2.7680   3.6316
     7.9476   9.3606  12.5744  12.8856

          k =-0.5009 0.0239 0.0001 (  2276 PWs)   bands (ev):

   -13.3761 -13.3752 -10.4220 -10.4219  -4.8199  -4.8194  -0.9266  -0.9254
    -0.3281  -0.3271   1.4824   1.4828   1.7579   1.7581   1.9833   1.9839
     9.3728   9.3732  10.1558  10.1570

          k =-0.5009 0.0236 0.7884 (  2281 PWs)   bands (ev):

   -12.2823 -12.2814  -9.3981  -9.3980  -4.7121  -4.7114  -3.1522  -3.1514
    -1.6434  -1.6432   0.3324   0.3335   0.8131   0.8134   2.9537   2.9540
     8.6177   8.6183  11.5227  11.5240

          k =-0.5010 0.0244-1.5766 (  2304 PWs)   bands (ev):

    -9.1433  -9.1430  -9.1425  -9.1419  -6.1993  -6.1991  -6.1988  -6.1986
    -1.5695  -1.5691  -1.5683  -1.5678   3.5131   3.5137   3.5141   3.5147
     7.9559   7.9562   7.9564   7.9566

          k =-0.5200 0.6550 0.0002 (  2289 PWs)   bands (ev):

   -13.6190 -12.7030 -11.6584  -8.9848  -6.8236  -2.6637  -2.0979  -0.6364
    -0.4754  -0.3406   0.1109   0.2850   1.1189   2.5853   2.7060   3.4939
     8.0326  11.5124  11.9444  12.9184

          k =-0.5200 0.6548 0.7885 (  2284 PWs)   bands (ev):

   -12.5276 -11.6204 -10.6010  -8.0197  -6.1116  -3.8796  -3.7146  -2.7092
    -1.6383  -0.7794  -0.6816  -0.0947   0.8131   0.8947   1.3542   4.7447
     7.0984  10.3450  11.5941  12.8799

          k =-0.5201 0.6555-1.5764 (  2286 PWs)   bands (ev):

    -9.3749  -9.3747  -8.6252  -8.6251  -7.2071  -7.2070  -5.0489  -5.0486
    -2.8044  -2.8043  -0.6941  -0.6940   2.8587   2.8590   3.4251   3.4253
     7.4079   7.4082   8.7262   8.7265

          k =-0.5201 0.6553-0.7881 (  2284 PWs)   bands (ev):

   -12.5276 -11.6203 -10.6010  -8.0197  -6.1117  -3.8796  -3.7146  -2.7092
    -1.6383  -0.7796  -0.6816  -0.0948   0.8132   0.8945   1.3543   4.7449
     7.0986  10.3453  11.5940  12.8808

     the Fermi energy is     4.9729 ev

!    total energy              =     -91.16353945 Ry
     Harris-Foulkes estimate   =     -91.16353945 Ry
     estimated scf accuracy    <       0.00000008 Ry

     The total energy is the sum of the following terms:

     one-electron contribution =     -41.26025501 Ry
     hartree contribution      =      34.92917100 Ry
     xc contribution           =     -27.96831106 Ry
     ewald contribution        =     -56.86497863 Ry
     smearing contrib. (-TS)   =       0.00083425 Ry

     convergence has been achieved in   5 iterations

     Forces acting on atoms (cartesian axes, Ry/au):

     atom    1 type  1   force =     0.00068430    0.00216074   -0.00002032
     atom    2 type  1   force =    -0.00075210   -0.00212963   -0.00009232
     atom    3 type  1   force =     0.00078605    0.00213750    0.00011588
     atom    4 type  1   force =    -0.00069389   -0.00218100   -0.00009304
     atom    5 type  1   force =    -0.00069283   -0.00216595    0.00015076
     atom    6 type  1   force =     0.00068934    0.00218573   -0.00002055
     atom    7 type  1   force =     0.00077842    0.00210838   -0.00007275
     atom    8 type  1   force =    -0.00079928   -0.00211578    0.00003234

     Total force =     0.006428     Total SCF correction =     0.000412


     Computing stress (Cartesian axis) and pressure

          total   stress  (Ry/bohr**3)                   (kbar)     P=       -0.96
   0.00010579  -0.00004921   0.00000006           15.56       -7.24        0.01
  -0.00004921   0.00004278  -0.00000000           -7.24        6.29       -0.00
   0.00000006  -0.00000000  -0.00016810            0.01       -0.00      -24.73


     number of scf cycles    =   3
     number of bfgs steps    =   1

     enthalpy old            =     -91.1603943092 Ry
     enthalpy new            =     -91.1635031069 Ry

     CASE: enthalpy_new < enthalpy_old

     new trust radius        =       0.0196622105 bohr
     new conv_thr            =       0.0000000219 Ry

     new unit-cell volume =    534.38261 a.u.^3 (    79.18733 Ang^3 )
     density =      2.01310 g/cm^3

CELL_PARAMETERS (bohr)
  14.758592371   0.427118537  -0.000674221
   0.362652737   7.796837247   0.002489020
   0.000509740  -0.001002361   4.650224039

ATOMIC_POSITIONS (crystal)
C             0.4644031577        0.9658312452       -0.5959558052
C             0.7972528400        0.6330760124        0.4040215661
C            -0.0356207786        0.4657375664        0.4039361062
C             0.2973003936        0.1332476114        1.4040661972
C             1.0472727627        0.3831604577        0.9039443234
C             0.7143738006        0.7157109472        0.9040497244
C             0.2144101700        0.2158599946        1.9040526392
C             0.5472776539       -0.1168378350       -0.0959497513



     Writing output data file ./pp.save/
     NEW-OLD atomic charge density approx. for the potential
     extrapolated charge   31.98405, renormalised to   32.00000

     total cpu time spent up to now is       15.4 secs

     Self-consistent Calculation

     iteration #  1     ecut=    40.00 Ry     beta= 0.50
     Davidson diagonalization with overlap
     ethr =  1.00E-06,  avg # of iterations =  3.9

     total cpu time spent up to now is       16.6 secs

     total energy              =     -91.16374995 Ry
     Harris-Foulkes estimate   =     -91.18049889 Ry
     estimated scf accuracy    <       0.00004321 Ry

     iteration #  2     ecut=    40.00 Ry     beta= 0.50
     Davidson diagonalization with overlap
     ethr =  1.35E-07,  avg # of iterations =  2.1

     total cpu time spent up to now is       17.4 secs

     total energy              =     -91.16376226 Ry
     Harris-Foulkes estimate   =     -91.16376416 Ry
     estimated scf accuracy    <       0.00000588 Ry

     iteration #  3     ecut=    40.00 Ry     beta= 0.50
     Davidson diagonalization with overlap
     ethr =  1.84E-08,  avg # of iterations =  2.0

     total cpu time spent up to now is       18.1 secs

     total energy              =     -91.16376278 Ry
     Harris-Foulkes estimate   =     -91.16376293 Ry
     estimated scf accuracy    <       0.00000078 Ry

     iteration #  4     ecut=    40.00 Ry     beta= 0.50
     Davidson diagonalization with overlap
     ethr =  2.45E-09,  avg # of iterations =  2.1

     total cpu time spent up to now is       18.9 secs

     total energy              =     -91.16376293 Ry
     Harris-Foulkes estimate   =     -91.16376306 Ry
     estimated scf accuracy    <       0.00000041 Ry

     iteration #  5     ecut=    40.00 Ry     beta= 0.50
     Davidson diagonalization with overlap
     ethr =  1.27E-09,  avg # of iterations =  2.0

     total cpu time spent up to now is       19.7 secs

     End of self-consistent calculation

          k = 0.0000 0.0000 0.0000 (  2297 PWs)   bands (ev):

   -13.7631 -12.2623 -12.2622  -8.4813  -7.3630  -1.5948  -1.5947  -1.2484
    -0.5939   0.0558   0.0559   0.7610   0.7611   2.7345   2.8329   3.1151
     7.1997   9.3603  12.3199  12.3199

          k = 0.0000-0.0003 0.7917 (  2275 PWs)   bands (ev):

   -12.6540 -11.1788 -11.1787  -7.5365  -6.5698  -3.9423  -3.1854  -3.1853
    -0.8575  -0.8574  -0.4447   0.0330   0.7311   1.2952   1.2954   4.4724
     6.7659  10.7775  11.0427  11.0431

          k =-0.0001 0.0005-1.5834 (  2294 PWs)   bands (ev):

    -9.4457  -9.4455  -8.4502  -8.4501  -7.4519  -7.4518  -4.7442  -4.7439
    -3.0900  -3.0899  -0.6023  -0.6022   3.4940   3.4943   3.6006   3.6010
     7.5823   7.5829   8.3754   8.3757

          k =-0.0182 0.6304 0.0001 (  2301 PWs)   bands (ev):

   -13.5360 -12.9983 -11.1754  -9.7233  -5.9362  -3.8347  -1.6744  -1.5088
    -0.4247   0.0489   0.5109   1.5999   1.6212   2.1643   2.4033   2.4046
     8.7951  10.9394  11.6454  12.7877

          k =-0.0182 0.6302 0.7918 (  2279 PWs)   bands (ev):

   -12.4337 -11.9067 -10.1153  -8.7175  -5.3827  -4.1259  -3.6148  -2.4857
    -2.1721  -1.0848  -0.3648  -0.1952   0.4296   0.8705   2.7575   3.6114
     7.9649   9.3874  12.6043  12.8857

          k =-0.0183 0.6309-1.5832 (  2276 PWs)   bands (ev):

    -9.2529  -9.2527  -8.8054  -8.8051  -6.8005  -6.8003  -5.6025  -5.6022
    -2.2348  -2.2346  -1.0964  -1.0963   3.1390   3.1395   3.1563   3.1565
     7.9344   7.9347   8.2202   8.2206

          k =-0.0183 0.6307-0.7915 (  2279 PWs)   bands (ev):

   -12.4337 -11.9067 -10.1153  -8.7175  -5.3827  -4.1259  -3.6148  -2.4857
    -2.1721  -1.0848  -0.3650  -0.1952   0.4296   0.8706   2.7574   3.6116
     7.9652   9.3875  12.6044  12.8867

          k =-0.4996 0.0232 0.0001 (  2276 PWs)   bands (ev):

   -13.3840 -13.3837 -10.4531 -10.4530  -4.8661  -4.8660  -0.9344  -0.9342
    -0.2343  -0.2341   1.4286   1.4291   1.7269   1.7272   2.0480   2.0482
     9.3418   9.3425  10.1507  10.1513

          k =-0.4995 0.0230 0.7917 (  2281 PWs)   bands (ev):

   -12.2804 -12.2801  -9.4190  -9.4188  -4.6887  -4.6885  -3.1567  -3.1566
    -1.6100  -1.6097   0.3361   0.3364   0.7762   0.7765   2.9379   2.9382
     8.6293   8.6295  11.5353  11.5361

          k =-0.4997 0.0237-1.5833 (  2304 PWs)   bands (ev):

    -9.1098  -9.1095  -9.1092  -9.1090  -6.2063  -6.2060  -6.2058  -6.2056
    -1.6014  -1.6013  -1.6006  -1.6004   3.5434   3.5438   3.5440   3.5444
     7.9622   7.9625   7.9628   7.9631

          k =-0.5178 0.6537 0.0002 (  2289 PWs)   bands (ev):

   -13.6252 -12.7161 -11.6792  -9.0355  -6.8503  -2.7196  -2.1011  -0.5398
    -0.5344  -0.3532   0.0921   0.3716   1.1953   2.6403   2.6618   3.4467
     8.0248  11.5003  11.9186  12.9122

          k =-0.5178 0.6534 0.7919 (  2284 PWs)   bands (ev):

   -12.5240 -11.6237 -10.6119  -8.0593  -6.1107  -3.8401  -3.6674  -2.6645
    -1.6826  -0.7711  -0.6643  -0.1460   0.8011   0.8947   1.3489   4.7130
     7.1256  10.3679  11.6256  12.8835

          k =-0.5179 0.6542-1.5832 (  2286 PWs)   bands (ev):

    -9.3407  -9.3404  -8.5916  -8.5914  -7.2079  -7.2077  -5.0738  -5.0734
    -2.8150  -2.8149  -0.7390  -0.7389   2.8956   2.8960   3.4551   3.4554
     7.4206   7.4209   8.7200   8.7204

          k =-0.5179 0.6539-0.7915 (  2284 PWs)   bands (ev):

   -12.5240 -11.6237 -10.6119  -8.0593  -6.1107  -3.8401  -3.6674  -2.6645
    -1.6826  -0.7713  -0.6643  -0.1460   0.8010   0.8944   1.3490   4.7130
     7.1259  10.3682  11.6255  12.8843

     the Fermi energy is     4.9417 ev

!    total energy              =     -91.16376301 Ry
     Harris-Foulkes estimate   =     -91.16376300 Ry
     estimated scf accuracy    <       0.00000002 Ry

     The total energy is the sum of the following terms:

     one-electron contribution =     -41.38547968 Ry
     hartree contribution      =      34.99725197 Ry
     xc contribution           =     -27.97654720 Ry
     ewald contribution        =     -56.79981698 Ry
     smearing contrib. (-TS)   =       0.00082887 Ry

     convergence has been achieved in   5 iterations

     Forces acting on atoms (cartesian axes, Ry/au):

     atom    1 type  1   force =     0.00050727    0.00038238    0.00003543
     atom    2 type  1   force =    -0.00043180   -0.00040885    0.00004793
     atom    3 type  1   force =     0.00045729    0.00042858    0.00011099
     atom    4 type  1   force =    -0.00054535   -0.00039423   -0.00007004
     atom    5 type  1   force =    -0.00043809   -0.00042399    0.00006426
     atom    6 type  1   force =     0.00047086    0.00042536   -0.00011244
     atom    7 type  1   force =     0.00046807    0.00038829   -0.00003998
     atom    8 type  1   force =    -0.00048825   -0.00039753   -0.00003614

     Total force =     0.001784     Total SCF correction =     0.000145


     Computing stress (Cartesian axis) and pressure

          total   stress  (Ry/bohr**3)                   (kbar)     P=        2.58
  -0.00002869   0.00002008  -0.00000001           -4.22        2.95       -0.00
   0.00002008   0.00000711  -0.00000001            2.95        1.05       -0.00
  -0.00000001  -0.00000001   0.00007429           -0.00       -0.00       10.93


     number of scf cycles    =   4
     number of bfgs steps    =   2

     enthalpy old            =     -91.1635031069 Ry
     enthalpy new            =     -91.1637266846 Ry

     CASE: enthalpy_new < enthalpy_old

     new trust radius        =       0.0061104638 bohr
     new conv_thr            =       0.0000000100 Ry

     new unit-cell volume =    534.90894 a.u.^3 (    79.26533 Ang^3 )
     density =      2.01112 g/cm^3

CELL_PARAMETERS (bohr)
  14.751573833   0.432333931  -0.000677625
   0.365194944   7.798129822   0.002491463
   0.000508381  -0.001002812   4.656370030

ATOMIC_POSITIONS (crystal)
C             0.4644523810        0.9658439662       -0.5959499087
C             0.7972076504        0.6330603777        0.4040298825
C            -0.0355744070        0.4657551305        0.4039540329
C             0.2972492802        0.1332338046        1.4040547530
C             1.0472273527        0.3831433028        0.9039547259
C             0.7144209378        0.7157280679        0.9040309561
C             0.2144573739        0.2158734286        1.9040462295
C             0.5472294310       -0.1168520784       -0.0959556711



     Writing output data file ./pp.save/
     NEW-OLD atomic charge density approx. for the potential
     extrapolated charge   32.03149, renormalised to   32.00000

     total cpu time spent up to now is       19.8 secs

     Self-consistent Calculation

     iteration #  1     ecut=    40.00 Ry     beta= 0.50
     Davidson diagonalization with overlap
     ethr =  1.00E-06,  avg # of iterations =  2.0

     Threshold (ethr) on eigenvalues was too large:
     Diagonalizing with lowered threshold

     Davidson diagonalization with overlap
     ethr =  5.93E-08,  avg # of iterations =  1.5

     total cpu time spent up to now is       21.2 secs

     total energy              =     -91.16377175 Ry
     Harris-Foulkes estimate   =     -91.13077164 Ry
     estimated scf accuracy    <       0.00001916 Ry

     iteration #  2     ecut=    40.00 Ry     beta= 0.50
     Davidson diagonalization with overlap
     ethr =  5.99E-08,  avg # of iterations =  2.8

     total cpu time spent up to now is       22.2 secs

     total energy              =     -91.16380114 Ry
     Harris-Foulkes estimate   =     -91.16380390 Ry
     estimated scf accuracy    <       0.00000779 Ry

     iteration #  3     ecut=    40.00 Ry     beta= 0.50
     Davidson diagonalization with overlap
     ethr =  2.43E-08,  avg # of iterations =  1.0

     total cpu time spent up to now is       22.9 secs

     total energy              =     -91.16380002 Ry
     Harris-Foulkes estimate   =     -91.16380146 Ry
     estimated scf accuracy    <       0.00000236 Ry

     iteration #  4     ecut=    40.00 Ry     beta= 0.50
     Davidson diagonalization with overlap
     ethr =  7.39E-09,  avg # of iterations =  2.0

     total cpu time spent up to now is       23.8 secs

     total energy              =     -91.16380047 Ry
     Harris-Foulkes estimate   =     -91.16380048 Ry
     estimated scf accuracy    <       0.00000004 Ry

     iteration #  5     ecut=    40.00 Ry     beta= 0.50
     Davidson diagonalization with overlap
     ethr =  1.27E-10,  avg # of iterations =  2.3

     total cpu time spent up to now is       24.7 secs

     total energy              =     -91.16380047 Ry
     Harris-Foulkes estimate   =     -91.16380048 Ry
     estimated scf accuracy    <       0.00000002 Ry

     iteration #  6     ecut=    40.00 Ry     beta= 0.50
     Davidson diagonalization with overlap
     ethr =  5.72E-11,  avg # of iterations =  1.2

     total cpu time spent up to now is       25.4 secs

     End of self-consistent calculation

          k = 0.0000 0.0000 0.0000 (  2297 PWs)   bands (ev):

   -13.7649 -12.2618 -12.2618  -8.4696  -7.3656  -1.5871  -1.5871  -1.2523
    -0.6262   0.0544   0.0544   0.7318   0.7318   2.7110   2.8357   3.1207
     7.1956   9.3523  12.3134  12.3134

          k = 0.0000-0.0003 0.7906 (  2275 PWs)   bands (ev):

   -12.6587 -11.1813 -11.1813  -7.5274  -6.5803  -3.9589  -3.2049  -3.2049
    -0.8512  -0.8512  -0.4566   0.0255   0.7256   1.2896   1.2899   4.4742
     6.7519  10.7654  11.0249  11.0252

          k =-0.0001 0.0005-1.5813 (  2294 PWs)   bands (ev):

    -9.4597  -9.4596  -8.4658  -8.4657  -7.4559  -7.4559  -4.7429  -4.7428
    -3.0948  -3.0947  -0.5970  -0.5970   3.4778   3.4779   3.5854   3.5858
     7.5699   7.5705   8.3669   8.3671

          k =-0.0185 0.6303 0.0001 (  2301 PWs)   bands (ev):

   -13.5376 -12.9993 -11.1732  -9.7184  -5.9318  -3.8278  -1.6772  -1.5106
    -0.4566   0.0181   0.5178   1.5942   1.5998   2.1688   2.3787   2.4077
     8.7901  10.9331  11.6358  12.7808

          k =-0.0184 0.6301 0.7908 (  2279 PWs)   bands (ev):

   -12.4383 -11.9106 -10.1161  -8.7158  -5.3900  -4.1428  -3.6266  -2.4844
    -2.1900  -1.0995  -0.3713  -0.2007   0.4342   0.8694   2.7528   3.6097
     7.9501   9.3702  12.5835  12.8693

          k =-0.0186 0.6308-1.5811 (  2276 PWs)   bands (ev):

    -9.2669  -9.2667  -8.8195  -8.8194  -6.8053  -6.8052  -5.6051  -5.6050
    -2.2350  -2.2349  -1.0927  -1.0927   3.1233   3.1238   3.1412   3.1413
     7.9224   7.9225   8.2099   8.2102

          k =-0.0185 0.6306-0.7905 (  2279 PWs)   bands (ev):

   -12.4383 -11.9106 -10.1161  -8.7158  -5.3901  -4.1428  -3.6266  -2.4844
    -2.1900  -1.0995  -0.3716  -0.2008   0.4342   0.8694   2.7527   3.6099
     7.9504   9.3703  12.5836  12.8703

          k =-0.4998 0.0234 0.0001 (  2276 PWs)   bands (ev):

   -13.3851 -13.3850 -10.4498 -10.4497  -4.8604  -4.8603  -0.9378  -0.9374
    -0.2658  -0.2657   1.4345   1.4348   1.7286   1.7290   2.0223   2.0225
     9.3395   9.3399  10.1433  10.1440

          k =-0.4998 0.0232 0.7907 (  2281 PWs)   bands (ev):

   -12.2845 -12.2844  -9.4187  -9.4186  -4.7015  -4.7013  -3.1613  -3.1612
    -1.6264  -1.6262   0.3291   0.3295   0.7783   0.7785   2.9348   2.9353
     8.6163   8.6166  11.5244  11.5253

          k =-0.4999 0.0239-1.5812 (  2304 PWs)   bands (ev):

    -9.1234  -9.1233  -9.1232  -9.1230  -6.2103  -6.2101  -6.2100  -6.2099
    -1.5995  -1.5994  -1.5988  -1.5986   3.5278   3.5280   3.5283   3.5284
     7.9517   7.9518   7.9524   7.9525

          k =-0.5183 0.6537 0.0002 (  2289 PWs)   bands (ev):

   -13.6270 -12.7164 -11.6781  -9.0279  -6.8485  -2.7121  -2.1039  -0.5720
    -0.5267  -0.3552   0.0923   0.3414   1.1671   2.6166   2.6650   3.4505
     8.0185  11.4936  11.9132  12.9014

          k =-0.5183 0.6535 0.7908 (  2284 PWs)   bands (ev):

   -12.5288 -11.6270 -10.6138  -8.0549  -6.1170  -3.8558  -3.6866  -2.6835
    -1.6776  -0.7775  -0.6772  -0.1399   0.7969   0.8888   1.3450   4.7122
     7.1101  10.3500  11.6033  12.8748

          k =-0.5184 0.6543-1.5811 (  2286 PWs)   bands (ev):

    -9.3547  -9.3546  -8.6062  -8.6061  -7.2128  -7.2127  -5.0742  -5.0741
    -2.8178  -2.8177  -0.7341  -0.7341   2.8797   2.8800   3.4406   3.4408
     7.4074   7.4077   8.7108   8.7110

          k =-0.5183 0.6540-0.7904 (  2284 PWs)   bands (ev):

   -12.5288 -11.6269 -10.6138  -8.0549  -6.1170  -3.8559  -3.6867  -2.6834
    -1.6776  -0.7777  -0.6772  -0.1399   0.7969   0.8885   1.3451   4.7122
     7.1104  10.3503  11.6032  12.8757

     the Fermi energy is     4.9406 ev

!    total energy              =     -91.16380047 Ry
     Harris-Foulkes estimate   =     -91.16380047 Ry
     estimated scf accuracy    <          3.8E-09 Ry

     The total energy is the sum of the following terms:

     one-electron contribution =     -41.40404062 Ry
     hartree contribution      =      34.99495882 Ry
     xc contribution           =     -27.97053764 Ry
     ewald contribution        =     -56.78501269 Ry
     smearing contrib. (-TS)   =       0.00083165 Ry

     convergence has been achieved in   6 iterations

     Forces acting on atoms (cartesian axes, Ry/au):

     atom    1 type  1   force =     0.00010171    0.00024368   -0.00003015
     atom    2 type  1   force =    -0.00016424   -0.00020180   -0.00006013
     atom    3 type  1   force =     0.00018879    0.00022055    0.00006997
     atom    4 type  1   force =    -0.00012363   -0.00026432   -0.00003417
     atom    5 type  1   force =    -0.00015747   -0.00022256    0.00008275
     atom    6 type  1   force =     0.00016601    0.00023794    0.00001319
     atom    7 type  1   force =     0.00012817    0.00021988   -0.00004698
     atom    8 type  1   force =    -0.00013935   -0.00023337    0.00000552

     Total force =     0.000790     Total SCF correction =     0.000013


     Computing stress (Cartesian axis) and pressure

          total   stress  (Ry/bohr**3)                   (kbar)     P=       -0.01
  -0.00000749   0.00000853  -0.00000001           -1.10        1.25       -0.00
   0.00000853   0.00001199   0.00000001            1.25        1.76        0.00
  -0.00000001   0.00000001  -0.00000478           -0.00        0.00       -0.70


     number of scf cycles    =   5
     number of bfgs steps    =   3

     enthalpy old            =     -91.1637266846 Ry
     enthalpy new            =     -91.1637641100 Ry

     CASE: enthalpy_new < enthalpy_old

     new trust radius        =       0.0019203155 bohr
     new conv_thr            =       0.0000000100 Ry

     new unit-cell volume =    534.94496 a.u.^3 (    79.27066 Ang^3 )
     density =      2.01098 g/cm^3

CELL_PARAMETERS (bohr)
  14.748393286   0.436115877  -0.000681298
   0.367032910   7.800824288   0.002492614
   0.000506818  -0.001002207   4.656166630

ATOMIC_POSITIONS (crystal)
C             0.4644627494        0.9658801890       -0.5959562564
C             0.7971929436        0.6330298939        0.4040168986
C            -0.0355578799        0.4657882294        0.4039714855
C             0.2972372403        0.1331947573        1.4040459630
C             1.0472132128        0.3831098104        0.9039745022
C             0.7144357822        0.7157636343        0.9040323020
C             0.2144696041        0.2159063144        1.9040349688
C             0.5472163475       -0.1168868287       -0.0959548637



     Writing output data file ./pp.save/
     NEW-OLD atomic charge density approx. for the potential
     extrapolated charge   32.00215, renormalised to   32.00000

     total cpu time spent up to now is       25.5 secs

     Self-consistent Calculation

     iteration #  1     ecut=    40.00 Ry     beta= 0.50
     Davidson diagonalization with overlap
     ethr =  1.00E-06,  avg # of iterations =  2.0

     Threshold (ethr) on eigenvalues was too large:
     Diagonalizing with lowered threshold

     Davidson diagonalization with overlap
     ethr =  6.32E-10,  avg # of iterations =  3.4

     total cpu time spent up to now is       27.8 secs

     total energy              =     -91.16380470 Ry
     Harris-Foulkes estimate   =     -91.16153943 Ry
     estimated scf accuracy    <       0.00000024 Ry

     iteration #  2     ecut=    40.00 Ry     beta= 0.50
     Davidson diagonalization with overlap
     ethr =  7.64E-10,  avg # of iterations =  2.0

     total cpu time spent up to now is       28.9 secs

     total energy              =     -91.16380469 Ry
     Harris-Foulkes estimate   =     -91.16380475 Ry
     estimated scf accuracy    <       0.00000013 Ry

     iteration #  3     ecut=    40.00 Ry     beta= 0.50
     Davidson diagonalization with overlap
     ethr =  4.15E-10,  avg # of iterations =  2.0

     total cpu time spent up to now is       30.1 secs

     End of self-consistent calculation

          k = 0.0000 0.0000 0.0000 (  2297 PWs)   bands (ev):

   -13.7695 -12.2657 -12.2657  -8.4697  -7.3697  -1.5867  -1.5867  -1.2580
    -0.6315   0.0510   0.0510   0.7277   0.7277   2.7089   2.8367   3.1218
     7.1963   9.3479  12.3092  12.3092

          k = 0.0000-0.0003 0.7907 (  2275 PWs)   bands (ev):

   -12.6633 -11.1851 -11.1851  -7.5276  -6.5842  -3.9638  -3.2083  -3.2083
    -0.8516  -0.8516  -0.4579   0.0202   0.7242   1.2864   1.2867   4.4755
     6.7510  10.7613  11.0267  11.0271

          k =-0.0001 0.0005-1.5814 (  2294 PWs)   bands (ev):

    -9.4642  -9.4641  -8.4694  -8.4694  -7.4599  -7.4598  -4.7435  -4.7434
    -3.0983  -3.0982  -0.5975  -0.5975   3.4737   3.4738   3.5822   3.5826
     7.5696   7.5701   8.3690   8.3691

          k =-0.0186 0.6301 0.0001 (  2301 PWs)   bands (ev):

   -13.5424 -13.0039 -11.1762  -9.7207  -5.9333  -3.8281  -1.6809  -1.5128
    -0.4618   0.0132   0.5189   1.5910   1.5968   2.1700   2.3762   2.4078
     8.7907  10.9360  11.6286  12.7779

          k =-0.0186 0.6299 0.7908 (  2279 PWs)   bands (ev):

   -12.4430 -11.9152 -10.1192  -8.7181  -5.3922  -4.1460  -3.6310  -2.4864
    -2.1929  -1.1016  -0.3748  -0.2028   0.4342   0.8689   2.7500   3.6097
     7.9495   9.3712  12.5849  12.8622

          k =-0.0187 0.6306-1.5812 (  2276 PWs)   bands (ev):

    -9.2714  -9.2714  -8.8238  -8.8237  -6.8084  -6.8083  -5.6072  -5.6071
    -2.2368  -2.2368  -1.0936  -1.0935   3.1207   3.1212   3.1392   3.1393
     7.9217   7.9219   8.2107   8.2111

          k =-0.0187 0.6304-0.7905 (  2279 PWs)   bands (ev):

   -12.4430 -11.9152 -10.1192  -8.7181  -5.3922  -4.1460  -3.6310  -2.4864
    -2.1929  -1.1016  -0.3751  -0.2029   0.4342   0.8689   2.7499   3.6099
     7.9499   9.3713  12.5851  12.8632

          k =-0.4999 0.0235 0.0001 (  2276 PWs)   bands (ev):

   -13.3895 -13.3894 -10.4526 -10.4525  -4.8615  -4.8614  -0.9429  -0.9424
    -0.2708  -0.2707   1.4356   1.4359   1.7276   1.7278   2.0194   2.0197
     9.3420   9.3426  10.1391  10.1398

          k =-0.4999 0.0233 0.7907 (  2281 PWs)   bands (ev):

   -12.2889 -12.2888  -9.4215  -9.4214  -4.7041  -4.7040  -3.1645  -3.1644
    -1.6290  -1.6287   0.3243   0.3247   0.7780   0.7783   2.9338   2.9341
     8.6171   8.6173  11.5210  11.5218

          k =-0.5000 0.0240-1.5813 (  2304 PWs)   bands (ev):

    -9.1277  -9.1276  -9.1274  -9.1273  -6.2130  -6.2129  -6.2126  -6.2126
    -1.6008  -1.6007  -1.6003  -1.6001   3.5241   3.5244   3.5245   3.5249
     7.9525   7.9527   7.9531   7.9532

          k =-0.5186 0.6537 0.0002 (  2289 PWs)   bands (ev):

   -13.6320 -12.7205 -11.6819  -9.0290  -6.8511  -2.7120  -2.1070  -0.5774
    -0.5258  -0.3589   0.0911   0.3369   1.1634   2.6144   2.6661   3.4497
     8.0190  11.4888  11.9163  12.8931

          k =-0.5185 0.6534 0.7909 (  2284 PWs)   bands (ev):

   -12.5337 -11.6311 -10.6176  -8.0561  -6.1196  -3.8608  -3.6900  -2.6868
    -1.6786  -0.7805  -0.6787  -0.1399   0.7958   0.8853   1.3439   4.7113
     7.1099  10.3505  11.6042  12.8717

          k =-0.5187 0.6542-1.5812 (  2286 PWs)   bands (ev):

    -9.3595  -9.3594  -8.6101  -8.6100  -7.2165  -7.2165  -5.0753  -5.0752
    -2.8205  -2.8205  -0.7347  -0.7346   2.8772   2.8776   3.4384   3.4386
     7.4070   7.4073   8.7115   8.7117

          k =-0.5186 0.6539-0.7905 (  2284 PWs)   bands (ev):

   -12.5337 -11.6310 -10.6176  -8.0561  -6.1197  -3.8608  -3.6901  -2.6868
    -1.6786  -0.7807  -0.6787  -0.1399   0.7959   0.8851   1.3440   4.7114
     7.1102  10.3508  11.6040  12.8725

     the Fermi energy is     4.9395 ev

!    total energy              =     -91.16380471 Ry
     Harris-Foulkes estimate   =     -91.16380471 Ry
     estimated scf accuracy    <          3.5E-09 Ry

     The total energy is the sum of the following terms:

     one-electron contribution =     -41.49655004 Ry
     hartree contribution      =      35.04031038 Ry
     xc contribution           =     -27.97350334 Ry
     ewald contribution        =     -56.73489552 Ry
     smearing contrib. (-TS)   =       0.00083382 Ry

     convergence has been achieved in   3 iterations

     Forces acting on atoms (cartesian axes, Ry/au):

     atom    1 type  1   force =     0.00005880    0.00000190   -0.00000051
     atom    2 type  1   force =     0.00002245   -0.00003419    0.00002730
     atom    3 type  1   force =    -0.00000987    0.00005838    0.00005211
     atom    4 type  1   force =    -0.00007199   -0.00002618   -0.00004364
     atom    5 type  1   force =    -0.00000254   -0.00003913    0.00004532
     atom    6 type  1   force =     0.00001234    0.00005232   -0.00005007
     atom    7 type  1   force =     0.00003262    0.00000673   -0.00000983
     atom    8 type  1   force =    -0.00004181   -0.00001984   -0.00002069

     Total force =     0.000181     Total SCF correction =     0.000064
     SCF correction compared to forces is large: reduce conv_thr to get better values


     Computing stress (Cartesian axis) and pressure

          total   stress  (Ry/bohr**3)                   (kbar)     P=        1.29
   0.00000842   0.00000052   0.00000001            1.24        0.08        0.00
   0.00000052   0.00001650  -0.00000001            0.08        2.43       -0.00
   0.00000001  -0.00000001   0.00000136            0.00       -0.00        0.20


     number of scf cycles    =   6
     number of bfgs steps    =   4

     enthalpy old            =     -91.1637641100 Ry
     enthalpy new            =     -91.1637683442 Ry

     CASE: enthalpy_new < enthalpy_old

     new trust radius        =       0.0057482373 bohr
     new conv_thr            =       0.0000000100 Ry

     new unit-cell volume =    535.57826 a.u.^3 (    79.36451 Ang^3 )
     density =      2.00860 g/cm^3

CELL_PARAMETERS (bohr)
  14.748019045   0.442803024  -0.000679702
   0.370277896   7.810104569   0.002493252
   0.000506894  -0.001002889   4.656407880

ATOMIC_POSITIONS (crystal)
C             0.4644836398        0.9659473166       -0.5959658375
C             0.7971742765        0.6329645906        0.4040060701
C            -0.0355350528        0.4658624379        0.4040173989
C             0.2972123312        0.1331184258        1.4040168476
C             1.0471928590        0.3830388508        0.9040212743
C             0.7144583151        0.7158404000        0.9040164480
C             0.2144905298        0.2159693495        1.9040135624
C             0.5471931014       -0.1169553711       -0.0959607637



     Writing output data file ./pp.save/
     NEW-OLD atomic charge density approx. for the potential
     extrapolated charge   32.03784, renormalised to   32.00000

     total cpu time spent up to now is       30.2 secs

     Self-consistent Calculation

     iteration #  1     ecut=    40.00 Ry     beta= 0.50
     Davidson diagonalization with overlap
     ethr =  1.00E-06,  avg # of iterations =  2.0

     Threshold (ethr) on eigenvalues was too large:
     Diagonalizing with lowered threshold

     Davidson diagonalization with overlap
     ethr =  4.94E-08,  avg # of iterations =  1.1

     total cpu time spent up to now is       32.1 secs

     total energy              =     -91.16377739 Ry
     Harris-Foulkes estimate   =     -91.12378040 Ry
     estimated scf accuracy    <       0.00001584 Ry

     iteration #  2     ecut=    40.00 Ry     beta= 0.50
     Davidson diagonalization with overlap
     ethr =  4.95E-08,  avg # of iterations =  2.9

     total cpu time spent up to now is       33.5 secs

     total energy              =     -91.16381537 Ry
     Harris-Foulkes estimate   =     -91.16381953 Ry
     estimated scf accuracy    <       0.00001315 Ry

     iteration #  3     ecut=    40.00 Ry     beta= 0.50
     Davidson diagonalization with overlap
     ethr =  4.11E-08,  avg # of iterations =  1.0

     total cpu time spent up to now is       34.4 secs

     total energy              =     -91.16381240 Ry
     Harris-Foulkes estimate   =     -91.16381575 Ry
     estimated scf accuracy    <       0.00000500 Ry

     iteration #  4     ecut=    40.00 Ry     beta= 0.50
     Davidson diagonalization with overlap
     ethr =  1.56E-08,  avg # of iterations =  2.0

     total cpu time spent up to now is       35.7 secs

     total energy              =     -91.16381356 Ry
     Harris-Foulkes estimate   =     -91.16381368 Ry
     estimated scf accuracy    <       0.00000032 Ry

     iteration #  5     ecut=    40.00 Ry     beta= 0.50
     Davidson diagonalization with overlap
     ethr =  1.00E-09,  avg # of iterations =  1.0

     total cpu time spent up to now is       36.6 secs

     total energy              =     -91.16381355 Ry
     Harris-Foulkes estimate   =     -91.16381358 Ry
     estimated scf accuracy    <       0.00000010 Ry

     iteration #  6     ecut=    40.00 Ry     beta= 0.50
     Davidson diagonalization with overlap
     ethr =  3.17E-10,  avg # of iterations =  1.0

     total cpu time spent up to now is       37.5 secs

     total energy              =     -91.16381353 Ry
     Harris-Foulkes estimate   =     -91.16381355 Ry
     estimated scf accuracy    <       0.00000004 Ry

     iteration #  7     ecut=    40.00 Ry     beta= 0.50
     Davidson diagonalization with overlap
     ethr =  1.28E-10,  avg # of iterations =  2.0

     total cpu time spent up to now is       38.9 secs

     End of self-consistent calculation

          k = 0.0000 0.0000 0.0000 (  2297 PWs)   bands (ev):

   -13.7816 -12.2779 -12.2778  -8.4807  -7.3825  -1.5976  -1.5975  -1.2748
    -0.6459   0.0372   0.0372   0.7137   0.7137   2.6957   2.8261   3.1129
     7.1863   9.3296  12.2882  12.2882

          k = 0.0000-0.0003 0.7906 (  2275 PWs)   bands (ev):

   -12.6756 -11.1975 -11.1974  -7.5388  -6.5972  -3.9773  -3.2215  -3.2215
    -0.8628  -0.8628  -0.4703   0.0035   0.7123   1.2725   1.2728   4.4665
     6.7388  10.7433  11.0159  11.0163

          k =-0.0001 0.0005-1.5813 (  2294 PWs)   bands (ev):

    -9.4771  -9.4770  -8.4823  -8.4823  -7.4724  -7.4724  -4.7552  -4.7550
    -3.1109  -3.1108  -0.6088  -0.6087   3.4578   3.4580   3.5679   3.5683
     7.5574   7.5579   8.3594   8.3596

          k =-0.0189 0.6294 0.0001 (  2301 PWs)   bands (ev):

   -13.5552 -13.0172 -11.1879  -9.7327  -5.9445  -3.8390  -1.6927  -1.5219
    -0.4763  -0.0012   0.5084   1.5774   1.5821   2.1595   2.3629   2.3984
     8.7779  10.9260  11.6016  12.7590

          k =-0.0189 0.6291 0.7908 (  2279 PWs)   bands (ev):

   -12.4560 -11.9286 -10.1310  -8.7302  -5.4042  -4.1592  -3.6442  -2.4982
    -2.2057  -1.1144  -0.3867  -0.2122   0.4232   0.8576   2.7354   3.6002
     7.9364   9.3605  12.5718  12.8352

          k =-0.0190 0.6299-1.5811 (  2276 PWs)   bands (ev):

    -9.2849  -9.2847  -8.8375  -8.8374  -6.8206  -6.8205  -5.6195  -5.6193
    -2.2485  -2.2484  -1.1048  -1.1047   3.1087   3.1092   3.1283   3.1284
     7.9083   7.9085   8.1998   8.2001

          k =-0.0189 0.6297-0.7905 (  2279 PWs)   bands (ev):

   -12.4560 -11.9286 -10.1310  -8.7303  -5.4042  -4.1592  -3.6442  -2.4982
    -2.2057  -1.1143  -0.3870  -0.2122   0.4233   0.8576   2.7353   3.6004
     7.9367   9.3606  12.5720  12.8362

          k =-0.5000 0.0237 0.0001 (  2276 PWs)   bands (ev):

   -13.4017 -13.4016 -10.4646 -10.4645  -4.8730  -4.8729  -0.9588  -0.9584
    -0.2851  -0.2850   1.4251   1.4252   1.7166   1.7168   2.0060   2.0061
     9.3330   9.3335  10.1204  10.1211

          k =-0.4999 0.0234 0.7907 (  2281 PWs)   bands (ev):

   -12.3012 -12.3012  -9.4336  -9.4336  -4.7167  -4.7166  -3.1770  -3.1769
    -1.6418  -1.6417   0.3084   0.3088   0.7669   0.7670   2.9224   2.9227
     8.6059   8.6061  11.5036  11.5044

          k =-0.5001 0.0242-1.5812 (  2304 PWs)   bands (ev):

    -9.1405  -9.1405  -9.1405  -9.1403  -6.2253  -6.2252  -6.2251  -6.2250
    -1.6122  -1.6122  -1.6122  -1.6120   3.5091   3.5092   3.5094   3.5096
     7.9416   7.9418   7.9422   7.9424

          k =-0.5189 0.6531 0.0002 (  2289 PWs)   bands (ev):

   -13.6452 -12.7328 -11.6948  -9.0399  -6.8630  -2.7227  -2.1172  -0.5920
    -0.5362  -0.3725   0.0825   0.3228   1.1494   2.6013   2.6555   3.4364
     8.0078  11.4666  11.9048  12.8628

          k =-0.5188 0.6529 0.7908 (  2284 PWs)   bands (ev):

   -12.5471 -11.6435 -10.6305  -8.0672  -6.1320  -3.8745  -3.7032  -2.7002
    -1.6898  -0.7910  -0.6909  -0.1507   0.7841   0.8717   1.3349   4.6977
     7.0990  10.3375  11.5919  12.8524

          k =-0.5190 0.6536-1.5811 (  2286 PWs)   bands (ev):

    -9.3732  -9.3730  -8.6232  -8.6230  -7.2295  -7.2294  -5.0867  -5.0866
    -2.8327  -2.8326  -0.7458  -0.7457   2.8661   2.8665   3.4265   3.4267
     7.3955   7.3958   8.6988   8.6991

          k =-0.5189 0.6534-0.7904 (  2284 PWs)   bands (ev):

   -12.5470 -11.6435 -10.6305  -8.0672  -6.1321  -3.8745  -3.7032  -2.7002
    -1.6898  -0.7912  -0.6909  -0.1508   0.7842   0.8715   1.3350   4.6978
     7.0992  10.3378  11.5918  12.8532

     the Fermi energy is     4.9255 ev

!    total energy              =     -91.16381354 Ry
     Harris-Foulkes estimate   =     -91.16381354 Ry
     estimated scf accuracy    <          1.4E-10 Ry

     The total energy is the sum of the following terms:

     one-electron contribution =     -41.72560629 Ry
     hartree contribution      =      35.14064012 Ry
     xc contribution           =     -27.97395685 Ry
     ewald contribution        =     -56.60572882 Ry
     smearing contrib. (-TS)   =       0.00083830 Ry

     convergence has been achieved in   7 iterations

     Forces acting on atoms (cartesian axes, Ry/au):

     atom    1 type  1   force =    -0.00020131   -0.00037665    0.00000460
     atom    2 type  1   force =     0.00022206    0.00037477    0.00005560
     atom    3 type  1   force =    -0.00022280   -0.00034558    0.00000447
     atom    4 type  1   force =     0.00019755    0.00034987    0.00000399
     atom    5 type  1   force =     0.00021672    0.00035880   -0.00002094
     atom    6 type  1   force =    -0.00021178   -0.00034685   -0.00002584
     atom    7 type  1   force =    -0.00021757   -0.00037313    0.00001751
     atom    8 type  1   force =     0.00021712    0.00035877   -0.00003940

     Total force =     0.001188     Total SCF correction =     0.000023


     Computing stress (Cartesian axis) and pressure

          total   stress  (Ry/bohr**3)                   (kbar)     P=        1.54
   0.00001433  -0.00000313   0.00000000            2.11       -0.46        0.00
  -0.00000313   0.00001737   0.00000000           -0.46        2.56        0.00
   0.00000000   0.00000000  -0.00000025            0.00        0.00       -0.04


     number of scf cycles    =   7
     number of bfgs steps    =   5

     enthalpy old            =     -91.1637683442 Ry
     enthalpy new            =     -91.1637771276 Ry

     CASE: enthalpy_new < enthalpy_old

     new trust radius        =       0.0086162725 bohr
     new conv_thr            =       0.0000000100 Ry

     new unit-cell volume =    536.56598 a.u.^3 (    79.51087 Ang^3 )
     density =      2.00490 g/cm^3

CELL_PARAMETERS (bohr)
  14.749002920   0.451833493  -0.000683394
   0.374651801   7.824179573   0.002495687
   0.000505141  -0.001002895   4.656495321

ATOMIC_POSITIONS (crystal)
C             0.4644937993        0.9659950836       -0.5959800537
C             0.7971608445        0.6329261653        0.4039941079
C            -0.0355163201        0.4659150955        0.4040750390
C             0.2971967894        0.1330563416        1.4039854950
C             1.0471788378        0.3829897385        0.9040760217
C             0.7144752149        0.7158981951        0.9040009800
C             0.2145021047        0.2160100969        1.9039871329
C             0.5471787294       -0.1170047165       -0.0959737229



     Writing output data file ./pp.save/
     NEW-OLD atomic charge density approx. for the potential
     extrapolated charge   32.05891, renormalised to   32.00000

     total cpu time spent up to now is       39.0 secs

     Self-consistent Calculation

     iteration #  1     ecut=    40.00 Ry     beta= 0.50
     Davidson diagonalization with overlap
     ethr =  1.00E-06,  avg # of iterations =  2.4

     total cpu time spent up to now is       40.5 secs

     total energy              =     -91.16373708 Ry
     Harris-Foulkes estimate   =     -91.10095389 Ry
     estimated scf accuracy    <       0.00003921 Ry

     iteration #  2     ecut=    40.00 Ry     beta= 0.50
     Davidson diagonalization with overlap
     ethr =  1.23E-07,  avg # of iterations =  3.2

     total cpu time spent up to now is       42.4 secs

     total energy              =     -91.16383014 Ry
     Harris-Foulkes estimate   =     -91.16384024 Ry
     estimated scf accuracy    <       0.00003166 Ry

     iteration #  3     ecut=    40.00 Ry     beta= 0.50
     Davidson diagonalization with overlap
     ethr =  9.89E-08,  avg # of iterations =  1.0

     total cpu time spent up to now is       43.5 secs

     total energy              =     -91.16382304 Ry
     Harris-Foulkes estimate   =     -91.16383109 Ry
     estimated scf accuracy    <       0.00001187 Ry

     iteration #  4     ecut=    40.00 Ry     beta= 0.50
     Davidson diagonalization with overlap
     ethr =  3.71E-08,  avg # of iterations =  2.0

     total cpu time spent up to now is       46.1 secs

     total energy              =     -91.16382578 Ry
     Harris-Foulkes estimate   =     -91.16382628 Ry
     estimated scf accuracy    <       0.00000102 Ry

     iteration #  5     ecut=    40.00 Ry     beta= 0.50
     Davidson diagonalization with overlap
     ethr =  3.19E-09,  avg # of iterations =  2.0

     total cpu time spent up to now is       47.5 secs

     total energy              =     -91.16382582 Ry
     Harris-Foulkes estimate   =     -91.16382587 Ry
     estimated scf accuracy    <       0.00000012 Ry

     iteration #  6     ecut=    40.00 Ry     beta= 0.50
     Davidson diagonalization with overlap
     ethr =  3.72E-10,  avg # of iterations =  1.8

     total cpu time spent up to now is       48.9 secs

     total energy              =     -91.16382581 Ry
     Harris-Foulkes estimate   =     -91.16382583 Ry
     estimated scf accuracy    <       0.00000002 Ry

     iteration #  7     ecut=    40.00 Ry     beta= 0.50
     Davidson diagonalization with overlap
     ethr =  7.32E-11,  avg # of iterations =  2.1

     total cpu time spent up to now is       50.6 secs

     End of self-consistent calculation

          k = 0.0000 0.0000 0.0000 (  2297 PWs)   bands (ev):

   -13.7996 -12.2963 -12.2963  -8.4994  -7.4017  -1.6161  -1.6160  -1.2996
    -0.6654   0.0162   0.0162   0.6943   0.6943   2.6765   2.8079   3.0975
     7.1702   9.3022  12.2583  12.2583

          k = 0.0000-0.0003 0.7906 (  2275 PWs)   bands (ev):

   -12.6937 -11.2160 -11.2160  -7.5575  -6.6164  -3.9962  -3.2406  -3.2405
    -0.8814  -0.8814  -0.4894  -0.0211   0.6936   1.2516   1.2519   4.4510
     6.7202  10.7165  10.9981  10.9984

          k =-0.0001 0.0005-1.5812 (  2294 PWs)   bands (ev):

    -9.4956  -9.4955  -8.5011  -8.5011  -7.4911  -7.4911  -4.7740  -4.7738
    -3.1299  -3.1299  -0.6273  -0.6273   3.4346   3.4348   3.5470   3.5474
     7.5378   7.5383   8.3435   8.3437

          k =-0.0192 0.6283 0.0001 (  2301 PWs)   bands (ev):

   -13.5743 -13.0369 -11.2059  -9.7518  -5.9625  -3.8571  -1.7103  -1.5356
    -0.4960  -0.0210   0.4902   1.5581   1.5594   2.1415   2.3436   2.3830
     8.7569  10.9082  11.5611  12.7307

          k =-0.0192 0.6280 0.7908 (  2279 PWs)   bands (ev):

   -12.4751 -11.9483 -10.1492  -8.7493  -5.4227  -4.1784  -3.6632  -2.5168
    -2.2245  -1.1335  -0.4044  -0.2262   0.4049   0.8392   2.7130   3.5848
     7.9161   9.3436  12.5512  12.7973

          k =-0.0193 0.6288-1.5811 (  2276 PWs)   bands (ev):

    -9.3041  -9.3040  -8.8571  -8.8570  -6.8391  -6.8389  -5.6385  -5.6383
    -2.2669  -2.2668  -1.1232  -1.1231   3.0911   3.0915   3.1123   3.1124
     7.8877   7.8879   8.1826   8.1829

          k =-0.0193 0.6286-0.7905 (  2279 PWs)   bands (ev):

   -12.4750 -11.9483 -10.1491  -8.7493  -5.4227  -4.1785  -3.6633  -2.5168
    -2.2245  -1.1335  -0.4046  -0.2262   0.4049   0.8393   2.7129   3.5850
     7.9164   9.3437  12.5514  12.7983

          k =-0.5000 0.0239 0.0001 (  2276 PWs)   bands (ev):

   -13.4198 -13.4197 -10.4835 -10.4831  -4.8919  -4.8917  -0.9825  -0.9822
    -0.3047  -0.3044   1.4067   1.4072   1.6988   1.6991   1.9864   1.9870
     9.3175   9.3182  10.0923  10.0929

          k =-0.4999 0.0237 0.7907 (  2281 PWs)   bands (ev):

   -12.3195 -12.3194  -9.4526  -9.4522  -4.7357  -4.7355  -3.1959  -3.1958
    -1.6611  -1.6606   0.2849   0.2853   0.7482   0.7486   2.9044   2.9047
     8.5879   8.5883  11.4769  11.4777

          k =-0.5000 0.0244-1.5812 (  2304 PWs)   bands (ev):

    -9.1592  -9.1590  -9.1589  -9.1589  -6.2443  -6.2441  -6.2440  -6.2437
    -1.6313  -1.6310  -1.6308  -1.6306   3.4869   3.4871   3.4873   3.4875
     7.9239   7.9240   7.9244   7.9246

          k =-0.5192 0.6522 0.0002 (  2289 PWs)   bands (ev):

   -13.6647 -12.7513 -11.7143  -9.0576  -6.8817  -2.7407  -2.1324  -0.6117
    -0.5542  -0.3930   0.0689   0.3033   1.1299   2.5822   2.6373   3.4148
     7.9894  11.4327  11.8852  12.8177

          k =-0.5192 0.6520 0.7908 (  2284 PWs)   bands (ev):

   -12.5666 -11.6621 -10.6501  -8.0851  -6.1509  -3.8939  -3.7221  -2.7197
    -1.7081  -0.8064  -0.7095  -0.1689   0.7656   0.8514   1.3210   4.6760
     7.0820  10.3174  11.5740  12.8213

          k =-0.5193 0.6527-1.5810 (  2286 PWs)   bands (ev):

    -9.3928  -9.3926  -8.6421  -8.6420  -7.2489  -7.2488  -5.1049  -5.1048
    -2.8514  -2.8513  -0.7640  -0.7640   2.8499   2.8503   3.4087   3.4089
     7.3781   7.3785   8.6784   8.6787

          k =-0.5192 0.6525-0.7904 (  2284 PWs)   bands (ev):

   -12.5666 -11.6620 -10.6501  -8.0851  -6.1509  -3.8940  -3.7221  -2.7196
    -1.7081  -0.8065  -0.7095  -0.1689   0.7656   0.8511   1.3211   4.6761
     7.0822  10.3178  11.5739  12.8222

     the Fermi energy is     4.9032 ev

!    total energy              =     -91.16382582 Ry
     Harris-Foulkes estimate   =     -91.16382582 Ry
     estimated scf accuracy    <          1.4E-09 Ry

     The total energy is the sum of the following terms:

     one-electron contribution =     -42.06252339 Ry
     hartree contribution      =      35.28723507 Ry
     xc contribution           =     -27.97397222 Ry
     ewald contribution        =     -56.41540926 Ry
     smearing contrib. (-TS)   =       0.00084399 Ry

     convergence has been achieved in   7 iterations

     Forces acting on atoms (cartesian axes, Ry/au):

     atom    1 type  1   force =    -0.00030200   -0.00068209    0.00000116
     atom    2 type  1   force =     0.00045466    0.00061171    0.00010103
     atom    3 type  1   force =    -0.00046815   -0.00057870   -0.00007098
     atom    4 type  1   force =     0.00031240    0.00065122    0.00003646
     atom    5 type  1   force =     0.00040948    0.00061542   -0.00008176
     atom    6 type  1   force =    -0.00040940   -0.00060452   -0.00001540
     atom    7 type  1   force =    -0.00036542   -0.00065072    0.00006794
     atom    8 type  1   force =     0.00036843    0.00063767   -0.00003845

     Total force =     0.002103     Total SCF correction =     0.000002


     Computing stress (Cartesian axis) and pressure

          total   stress  (Ry/bohr**3)                   (kbar)     P=        1.65
   0.00001646  -0.00000474   0.00000003            2.42       -0.70        0.00
  -0.00000474   0.00001752  -0.00000001           -0.70        2.58       -0.00
   0.00000003  -0.00000001  -0.00000027            0.00       -0.00       -0.04


     number of scf cycles    =   8
     number of bfgs steps    =   6

     enthalpy old            =     -91.1637771276 Ry
     enthalpy new            =     -91.1637893403 Ry

     CASE: enthalpy_new < enthalpy_old

     new trust radius        =       0.0129112746 bohr
     new conv_thr            =       0.0000000100 Ry

     new unit-cell volume =    538.05842 a.u.^3 (    79.73203 Ang^3 )
     density =      1.99934 g/cm^3

CELL_PARAMETERS (bohr)
  14.750829537   0.465050184  -0.000677021
   0.381048239   7.845338303   0.002496452
   0.000506398  -0.001004834   4.656577269

ATOMIC_POSITIONS (crystal)
C             0.4645046595        0.9660258775       -0.5960029288
C             0.7971563468        0.6328980005        0.4039859758
C            -0.0355047428        0.4659652418        0.4041438473
C             0.2971788990        0.1330033229        1.4039453705
C             1.0471699618        0.3829488693        0.9041451222
C             0.7144880587        0.7159520563        0.9039805081
C             0.2145111674        0.2160347462        1.9039592298
C             0.5471656496       -0.1170421146       -0.0959921249



     Writing output data file ./pp.save/
     NEW-OLD atomic charge density approx. for the potential
     extrapolated charge   32.08876, renormalised to   32.00000

     total cpu time spent up to now is       50.7 secs

     Self-consistent Calculation

     iteration #  1     ecut=    40.00 Ry     beta= 0.50
     Davidson diagonalization with overlap
     ethr =  1.00E-06,  avg # of iterations =  2.7

     total cpu time spent up to now is       52.6 secs

     total energy              =     -91.16363942 Ry
     Harris-Foulkes estimate   =     -91.06787119 Ry
     estimated scf accuracy    <       0.00009030 Ry

     iteration #  2     ecut=    40.00 Ry     beta= 0.50
     Davidson diagonalization with overlap
     ethr =  2.82E-07,  avg # of iterations =  3.3

     total cpu time spent up to now is       55.0 secs

     total energy              =     -91.16385272 Ry
     Harris-Foulkes estimate   =     -91.16387580 Ry
     estimated scf accuracy    <       0.00007211 Ry

     iteration #  3     ecut=    40.00 Ry     beta= 0.50
     Davidson diagonalization with overlap
     ethr =  2.25E-07,  avg # of iterations =  1.0

     total cpu time spent up to now is       56.2 secs

     total energy              =     -91.16383655 Ry
     Harris-Foulkes estimate   =     -91.16385486 Ry
     estimated scf accuracy    <       0.00002695 Ry

     iteration #  4     ecut=    40.00 Ry     beta= 0.50
     Davidson diagonalization with overlap
     ethr =  8.42E-08,  avg # of iterations =  2.0

     total cpu time spent up to now is       58.0 secs

     total energy              =     -91.16384280 Ry
     Harris-Foulkes estimate   =     -91.16384397 Ry
     estimated scf accuracy    <       0.00000237 Ry

     iteration #  5     ecut=    40.00 Ry     beta= 0.50
     Davidson diagonalization with overlap
     ethr =  7.41E-09,  avg # of iterations =  2.0

     total cpu time spent up to now is       59.6 secs

     total energy              =     -91.16384284 Ry
     Harris-Foulkes estimate   =     -91.16384300 Ry
     estimated scf accuracy    <       0.00000024 Ry

     iteration #  6     ecut=    40.00 Ry     beta= 0.50
     Davidson diagonalization with overlap
     ethr =  7.57E-10,  avg # of iterations =  2.1

     total cpu time spent up to now is       61.5 secs

     total energy              =     -91.16384290 Ry
     Harris-Foulkes estimate   =     -91.16384290 Ry
     estimated scf accuracy    <       0.00000002 Ry

     iteration #  7     ecut=    40.00 Ry     beta= 0.50
     Davidson diagonalization with overlap
     ethr =  5.67E-11,  avg # of iterations =  1.4

     total cpu time spent up to now is       62.9 secs

     End of self-consistent calculation

          k = 0.0000 0.0000 0.0000 (  2297 PWs)   bands (ev):

   -13.8264 -12.3238 -12.3237  -8.5277  -7.4303  -1.6442  -1.6442  -1.3366
    -0.6938  -0.0152  -0.0152   0.6658   0.6658   2.6480   2.7801   3.0740
     7.1460   9.2614  12.2151  12.2152

          k = 0.0000-0.0003 0.7906 (  2275 PWs)   bands (ev):

   -12.7206 -11.2436 -11.2435  -7.5859  -6.6449  -4.0242  -3.2688  -3.2687
    -0.9095  -0.9095  -0.5178  -0.0576   0.6654   1.2203   1.2206   4.4273
     6.6924  10.6766  10.9706  10.9710

          k =-0.0001 0.0005-1.5812 (  2294 PWs)   bands (ev):

    -9.5229  -9.5228  -8.5290  -8.5289  -7.5189  -7.5189  -4.8024  -4.8022
    -3.1584  -3.1583  -0.6554  -0.6553   3.4001   3.4003   3.5160   3.5164
     7.5080   7.5086   8.3193   8.3196

          k =-0.0198 0.6266 0.0001 (  2301 PWs)   bands (ev):

   -13.6025 -13.0663 -11.2329  -9.7803  -5.9897  -3.8846  -1.7366  -1.5562
    -0.5247  -0.0498   0.4625   1.5253   1.5298   2.1139   2.3151   2.3596
     8.7251  10.8804  11.5009  12.6889

          k =-0.0197 0.6264 0.7907 (  2279 PWs)   bands (ev):

   -12.5034 -11.9776 -10.1763  -8.7778  -5.4503  -4.2071  -3.6915  -2.5447
    -2.2524  -1.1620  -0.4307  -0.2471   0.3771   0.8115   2.6796   3.5614
     7.8858   9.3181  12.5202  12.7420

          k =-0.0198 0.6271-1.5811 (  2276 PWs)   bands (ev):

    -9.3326  -9.3324  -8.8863  -8.8861  -6.8666  -6.8664  -5.6669  -5.6667
    -2.2945  -2.2944  -1.1509  -1.1508   3.0647   3.0652   3.0884   3.0885
     7.8568   7.8569   8.1569   8.1572

          k =-0.0198 0.6269-0.7905 (  2279 PWs)   bands (ev):

   -12.5034 -11.9776 -10.1763  -8.7779  -5.4503  -4.2071  -3.6915  -2.5447
    -2.2524  -1.1619  -0.4310  -0.2472   0.3771   0.8115   2.6795   3.5616
     7.8861   9.3182  12.5203  12.7430

          k =-0.4999 0.0243 0.0001 (  2276 PWs)   bands (ev):

   -13.4468 -13.4466 -10.5114 -10.5114  -4.9204  -4.9202  -1.0178  -1.0175
    -0.3332  -0.3328   1.3790   1.3791   1.6722   1.6724   1.9581   1.9583
     9.2944   9.2947  10.0505  10.0510

          k =-0.4999 0.0240 0.7907 (  2281 PWs)   bands (ev):

   -12.3466 -12.3464  -9.4805  -9.4805  -4.7639  -4.7637  -3.2242  -3.2239
    -1.6893  -1.6892   0.2499   0.2503   0.7204   0.7204   2.8774   2.8777
[...]
C             1.0472064164        0.3829974457        0.9070444362
C             0.7144657320        0.7159474794        0.9043724785
C             0.2144500183        0.2159695162        1.9037037809
C             0.5472110235       -0.1170195250       -0.0990391237



     Writing output data file ./pp.save/
     NEW-OLD atomic charge density approx. for the potential
     extrapolated charge   31.94145, renormalised to   32.00000

     total cpu time spent up to now is     1967.3 secs

     Self-consistent Calculation

     iteration #  1     ecut=    40.00 Ry     beta= 0.50
     Davidson diagonalization with overlap
     ethr =  1.00E-06,  avg # of iterations =  3.9

     total cpu time spent up to now is     1986.7 secs

     total energy              =     -91.16426894 Ry
     Harris-Foulkes estimate   =     -91.25427676 Ry
     estimated scf accuracy    <       0.00006079 Ry

     iteration #  2     ecut=    40.00 Ry     beta= 0.50
     Davidson diagonalization with overlap
     ethr =  1.90E-07,  avg # of iterations =  2.9

     total cpu time spent up to now is     2002.7 secs

     total energy              =     -91.16438472 Ry
     Harris-Foulkes estimate   =     -91.16439708 Ry
     estimated scf accuracy    <       0.00004085 Ry

     iteration #  3     ecut=    40.00 Ry     beta= 0.50
     Davidson diagonalization with overlap
     ethr =  1.28E-07,  avg # of iterations =  1.0

     total cpu time spent up to now is     2011.7 secs

     total energy              =     -91.16437775 Ry
     Harris-Foulkes estimate   =     -91.16438609 Ry
     estimated scf accuracy    <       0.00001449 Ry

     iteration #  4     ecut=    40.00 Ry     beta= 0.50
     Davidson diagonalization with overlap
     ethr =  4.53E-08,  avg # of iterations =  2.0

     total cpu time spent up to now is     2024.3 secs

     total energy              =     -91.16438116 Ry
     Harris-Foulkes estimate   =     -91.16438161 Ry
     estimated scf accuracy    <       0.00000131 Ry

     iteration #  5     ecut=    40.00 Ry     beta= 0.50
     Davidson diagonalization with overlap
     ethr =  4.11E-09,  avg # of iterations =  1.1

     total cpu time spent up to now is     2033.6 secs

     total energy              =     -91.16438103 Ry
     Harris-Foulkes estimate   =     -91.16438121 Ry
     estimated scf accuracy    <       0.00000042 Ry

     iteration #  6     ecut=    40.00 Ry     beta= 0.50
     Davidson diagonalization with overlap
     ethr =  1.32E-09,  avg # of iterations =  2.0

     total cpu time spent up to now is     2045.3 secs

     total energy              =     -91.16438101 Ry
     Harris-Foulkes estimate   =     -91.16438106 Ry
     estimated scf accuracy    <       0.00000007 Ry

     iteration #  7     ecut=    40.00 Ry     beta= 0.50
     Davidson diagonalization with overlap
     ethr =  2.27E-10,  avg # of iterations =  2.0

     total cpu time spent up to now is     2058.1 secs

     End of self-consistent calculation

          k = 0.0000 0.0000 0.0000 (  2297 PWs)   bands (ev):

   -14.6284 -13.1415 -13.1415  -9.3824  -8.2801  -2.5039  -2.5036  -2.3933
    -1.5227  -0.9995  -0.9992  -0.1671  -0.1668   1.8104   1.9283   2.3318
     6.3902   8.0891  11.3385  11.3405

          k = 0.0000-0.0003 0.7904 (  2275 PWs)   bands (ev):

   -13.5255 -12.0632 -12.0632  -8.4390  -7.4921  -4.8476  -4.1033  -4.1019
    -1.7612  -1.7598  -1.3601  -1.1038  -0.1836   0.2443   0.2450   3.6812
     5.8527   9.5305  10.1162  10.1171

          k =-0.0001 0.0005-1.5807 (  2294 PWs)   bands (ev):

   -10.3362 -10.3361  -9.3549  -9.3537  -8.3434  -8.3417  -5.6510  -5.6508
    -4.0057  -4.0056  -1.5045  -1.5038   2.4031   2.4036   2.5673   2.5693
     6.5485   6.5503   7.5597   7.5598

          k =-0.0228 0.5561 0.0001 (  2301 PWs)   bands (ev):

   -14.4409 -13.9279 -12.0464 -10.6378  -6.8105  -4.7217  -2.5056  -2.2046
    -1.3595  -0.8888  -0.3865   0.5367   0.6977   1.2680   1.4783   1.6982
     7.7051   9.6616  10.0170  11.4673

          k =-0.0227 0.5559 0.7905 (  2279 PWs)   bands (ev):

   -13.3419 -12.8377 -10.9922  -9.6339  -6.2796  -5.0538  -4.5223  -3.3824
    -3.0823  -2.0066  -1.2037  -0.9056  -0.4655  -0.0283   1.7052   2.8948
     6.9409   8.5317  11.0279  11.5909

          k =-0.0228 0.5567-1.5806 (  2276 PWs)   bands (ev):

   -10.1726 -10.1724  -9.7410  -9.7405  -7.6891  -7.6881  -6.5166  -6.5161
    -3.1258  -3.1252  -1.9900  -1.9893   2.2828   2.2837   2.3511   2.3522
     6.9471   6.9488   7.4095   7.4107

          k =-0.0228 0.5564-0.7902 (  2279 PWs)   bands (ev):

   -13.3419 -12.8378 -10.9920  -9.6341  -6.2784  -5.0554  -4.5233  -3.3808
    -3.0812  -2.0075  -1.2038  -0.9059  -0.4668  -0.0272   1.7059   2.8941
     6.9423   8.5304  11.0293  11.5914

          k =-0.5162 0.0232 0.0001 (  2276 PWs)   bands (ev):

   -14.2529 -14.2525 -11.3484 -11.3458  -5.7816  -5.7802  -2.0606  -2.0603
    -1.1641  -1.1619   0.5226   0.5267   0.8068   0.8093   1.1201   1.1249
     8.6076   8.6109   8.9602   8.9603

          k =-0.5161 0.0229 0.7904 (  2281 PWs)   bands (ev):

   -13.1553 -13.1548 -10.3182 -10.3155  -5.6082  -5.6062  -4.0627  -4.0609
    -2.5304  -2.5265  -0.7821  -0.7815  -0.1301  -0.1264   2.0086   2.0111
     7.7539   7.7567  10.3740  10.3745

          k =-0.5163 0.0237-1.5807 (  2304 PWs)   bands (ev):

   -10.0140 -10.0131  -9.9928  -9.9923  -7.1199  -7.1176  -7.1004  -7.0979
    -2.5345  -2.5328  -2.4869  -2.4849   2.4672   2.4696   2.4892   2.4904
     7.0303   7.0328   7.0340   7.0360

          k =-0.5389 0.5793 0.0002 (  2289 PWs)   bands (ev):

   -14.5456 -13.6030 -12.6079  -9.8978  -7.7539  -3.6042  -2.8612  -1.4781
    -1.4189  -1.2865  -0.5586  -0.5579   0.2617   1.7207   1.7577   2.3965
     7.1388   9.7370  10.8884  10.9218

          k =-0.5389 0.5791 0.7905 (  2284 PWs)   bands (ev):

   -13.4467 -12.5152 -11.5417  -8.9286  -7.0254  -4.7625  -4.5845  -3.5973
    -2.5691  -1.5683  -1.5414  -1.0332  -0.1078  -0.0407   0.6773   3.6507
     6.2899   9.3884  10.7706  11.1988

          k =-0.5390 0.5799-1.5805 (  2286 PWs)   bands (ev):

   -10.2708 -10.2707  -9.5057  -9.5048  -8.1284  -8.1272  -5.9559  -5.9554
    -3.7209  -3.7205  -1.6297  -1.6290   2.0796   2.0802   2.5974   2.5989
     6.6177   6.6202   7.7183   7.7187

          k =-0.5390 0.5796-0.7902 (  2284 PWs)   bands (ev):

   -13.4467 -12.5151 -11.5419  -8.9283  -7.0262  -4.7621  -4.5830  -3.5984
    -2.5706  -1.5676  -1.5417  -1.0319  -0.1086  -0.0404   0.6768   3.6515
     6.2892   9.3898  10.7697  11.1994

     the Fermi energy is     3.9127 ev

!    total energy              =     -91.16438102 Ry
     Harris-Foulkes estimate   =     -91.16438103 Ry
     estimated scf accuracy    <          7.0E-09 Ry

     The total energy is the sum of the following terms:

     one-electron contribution =     -59.12030771 Ry
     hartree contribution      =      42.78818203 Ry
     xc contribution           =     -27.96007490 Ry
     ewald contribution        =     -46.87300193 Ry
     smearing contrib. (-TS)   =       0.00082148 Ry

     convergence has been achieved in   7 iterations

     Forces acting on atoms (cartesian axes, Ry/au):

     atom    1 type  1   force =     0.00013815   -0.00111388    0.00263170
     atom    2 type  1   force =     0.00096650    0.00038986   -0.00068979
     atom    3 type  1   force =    -0.00105676   -0.00033457   -0.00313652
     atom    4 type  1   force =    -0.00006550    0.00106901    0.00118213
     atom    5 type  1   force =     0.00059885    0.00046435   -0.00251357
     atom    6 type  1   force =    -0.00063376   -0.00044803   -0.00053716
     atom    7 type  1   force =    -0.00013609   -0.00077918    0.00006777
     atom    8 type  1   force =     0.00018860    0.00075243    0.00299544

     Total force =     0.006430     Total SCF correction =     0.000015


     Computing stress (Cartesian axis) and pressure

          total   stress  (Ry/bohr**3)                   (kbar)     P=       -0.28
  -0.00001355  -0.00000920   0.00000112           -1.99       -1.35        0.16
  -0.00000920   0.00000702  -0.00000065           -1.35        1.03       -0.10
   0.00000112  -0.00000065   0.00000084            0.16       -0.10        0.12


     number of scf cycles    =  50
     number of bfgs steps    =  37

     enthalpy old            =     -91.1642952946 Ry
     enthalpy new            =     -91.1643410846 Ry

     CASE: enthalpy_new < enthalpy_old

     new trust radius        =       0.0425932153 bohr
     new conv_thr            =       0.0000000100 Ry

     new unit-cell volume =    585.86751 a.u.^3 (    86.81661 Ang^3 )
     density =      1.83619 g/cm^3

CELL_PARAMETERS (bohr)
  14.182987261   0.518284642  -0.000598540
   0.351394200   8.880970515   0.002995544
   0.000490408  -0.000873138   4.658001646

ATOMIC_POSITIONS (crystal)
C             0.4644588698        0.9660967428       -0.6001125883
C             0.7971629875        0.6329264320        0.4053383326
C            -0.0354666851        0.4660369067        0.4081921684
C             0.2971824728        0.1328300049        1.4026609928
C             1.0471951239        0.3829658386        0.9079420576
C             0.7144860236        0.7159945880        0.9044879723
C             0.2144475902        0.2159867547        1.9036187520
C             0.5472036174       -0.1170512678       -0.0999626874



     Writing output data file ./pp.save/
     NEW-OLD atomic charge density approx. for the potential
     extrapolated charge   31.90893, renormalised to   32.00000

     total cpu time spent up to now is     2058.5 secs

     Self-consistent Calculation

     iteration #  1     ecut=    40.00 Ry     beta= 0.50
     Davidson diagonalization with overlap
     ethr =  1.00E-06,  avg # of iterations =  4.1

     total cpu time spent up to now is     2081.9 secs

     total energy              =     -91.16418409 Ry
     Harris-Foulkes estimate   =     -91.30277005 Ry
     estimated scf accuracy    <       0.00014253 Ry

     iteration #  2     ecut=    40.00 Ry     beta= 0.50
     Davidson diagonalization with overlap
     ethr =  4.45E-07,  avg # of iterations =  3.1

     total cpu time spent up to now is     2098.9 secs

     total energy              =     -91.16445905 Ry
     Harris-Foulkes estimate   =     -91.16448846 Ry
     estimated scf accuracy    <       0.00009672 Ry

     iteration #  3     ecut=    40.00 Ry     beta= 0.50
     Davidson diagonalization with overlap
     ethr =  3.02E-07,  avg # of iterations =  1.0

     total cpu time spent up to now is     2108.2 secs

     total energy              =     -91.16444198 Ry
     Harris-Foulkes estimate   =     -91.16446220 Ry
     estimated scf accuracy    <       0.00003453 Ry

     iteration #  4     ecut=    40.00 Ry     beta= 0.50
     Davidson diagonalization with overlap
     ethr =  1.08E-07,  avg # of iterations =  2.0

     total cpu time spent up to now is     2121.8 secs

     total energy              =     -91.16445018 Ry
     Harris-Foulkes estimate   =     -91.16445144 Ry
     estimated scf accuracy    <       0.00000344 Ry

     iteration #  5     ecut=    40.00 Ry     beta= 0.50
     Davidson diagonalization with overlap
     ethr =  1.07E-08,  avg # of iterations =  1.0

     total cpu time spent up to now is     2131.2 secs

     total energy              =     -91.16444980 Ry
     Harris-Foulkes estimate   =     -91.16445033 Ry
     estimated scf accuracy    <       0.00000099 Ry

     iteration #  6     ecut=    40.00 Ry     beta= 0.50
     Davidson diagonalization with overlap
     ethr =  3.10E-09,  avg # of iterations =  2.0

     total cpu time spent up to now is     2143.5 secs

     total energy              =     -91.16444988 Ry
     Harris-Foulkes estimate   =     -91.16444991 Ry
     estimated scf accuracy    <       0.00000004 Ry

     iteration #  7     ecut=    40.00 Ry     beta= 0.50
     Davidson diagonalization with overlap
     ethr =  1.35E-10,  avg # of iterations =  2.4

     total cpu time spent up to now is     2158.1 secs

     total energy              =     -91.16444989 Ry
     Harris-Foulkes estimate   =     -91.16444991 Ry
     estimated scf accuracy    <       0.00000002 Ry

     iteration #  8     ecut=    40.00 Ry     beta= 0.50
     Davidson diagonalization with overlap
     ethr =  7.50E-11,  avg # of iterations =  2.0

     total cpu time spent up to now is     2171.5 secs

     End of self-consistent calculation

          k = 0.0000 0.0000 0.0000 (  2297 PWs)   bands (ev):

   -14.6029 -13.1144 -13.1143  -9.3567  -8.2539  -2.4796  -2.4792  -2.3613
    -1.4958  -0.9864  -0.9860  -0.1404  -0.1400   1.8367   1.9535   2.3560
     6.4148   8.1244  11.4453  11.4479

          k = 0.0000-0.0003 0.7904 (  2275 PWs)   bands (ev):

   -13.4998 -12.0362 -12.0361  -8.4132  -7.4659  -4.8212  -4.0768  -4.0752
    -1.7367  -1.7350  -1.3336  -1.0721  -0.1576   0.2582   0.2591   3.7055
     5.8790   9.5650  10.1407  10.1419

          k =-0.0001 0.0005-1.5807 (  2294 PWs)   bands (ev):

   -10.3105 -10.3102  -9.3280  -9.3265  -8.3167  -8.3147  -5.6250  -5.6248
    -3.9798  -3.9796  -1.4792  -1.4784   2.4325   2.4335   2.5847   2.5870
     6.5629   6.5652   7.5839   7.5841

          k =-0.0202 0.5535 0.0001 (  2301 PWs)   bands (ev):

   -14.4150 -13.9011 -12.0208 -10.6134  -6.7835  -4.6963  -2.4750  -2.1833
    -1.3326  -0.8618  -0.3615   0.5658   0.7239   1.2937   1.5046   1.7379
     7.7165   9.6845  10.0403  11.5080

          k =-0.0202 0.5533 0.7905 (  2279 PWs)   bands (ev):

   -13.3161 -12.8109 -10.9666  -9.6092  -6.2530  -5.0272  -4.4956  -3.3567
    -3.0563  -1.9809  -1.1734  -0.8840  -0.4399  -0.0023   1.7339   2.9342
     6.9578   8.5555  11.0499  11.6183

          k =-0.0203 0.5541-1.5806 (  2276 PWs)   bands (ev):

   -10.1468 -10.1464  -9.7141  -9.7135  -7.6633  -7.6622  -6.4915  -6.4907
    -3.0997  -3.0991  -1.9641  -1.9632   2.3109   2.3125   2.3761   2.3775
     6.9739   6.9760   7.4419   7.4434

          k =-0.0203 0.5538-0.7903 (  2279 PWs)   bands (ev):

   -13.3160 -12.8110 -10.9664  -9.6095  -6.2515  -5.0292  -4.4969  -3.3548
    -3.0550  -1.9820  -1.1734  -0.8843  -0.4413  -0.0011   1.7348   2.9334
     6.9594   8.5539  11.0514  11.6190

          k =-0.5199 0.0206 0.0001 (  2276 PWs)   bands (ev):

   -14.2269 -14.2262 -11.3219 -11.3181  -5.7572  -5.7551  -2.0361  -2.0356
    -1.1378  -1.1345   0.5462   0.5523   0.8197   0.8234   1.1457   1.1529
     8.6431   8.6480   9.0208   9.0209

          k =-0.5199 0.0203 0.7904 (  2281 PWs)   bands (ev):

   -13.1292 -13.1285 -10.2918 -10.2878  -5.5829  -5.5802  -4.0372  -4.0348
    -2.5047  -2.4990  -0.7574  -0.7568  -0.1056  -0.1002   2.0223   2.0261
     7.7848   7.7888  10.4324  10.4330

          k =-0.5200 0.0211-1.5807 (  2304 PWs)   bands (ev):

    -9.9910  -9.9897  -9.9634  -9.9627  -7.0965  -7.0931  -7.0713  -7.0675
    -2.5168  -2.5141  -2.4549  -2.4519   2.4874   2.4906   2.5160   2.5175
     7.0478   7.0514   7.0530   7.0559

          k =-0.5401 0.5741 0.0002 (  2289 PWs)   bands (ev):

   -14.5187 -13.5779 -12.5823  -9.8715  -7.7291  -3.5781  -2.8404  -1.4513
    -1.3929  -1.2488  -0.5313  -0.5258   0.2882   1.7470   1.7828   2.4163
     7.1711   9.7427  10.9048  10.9931

          k =-0.5401 0.5738 0.7905 (  2284 PWs)   bands (ev):

   -13.4198 -12.4900 -11.5161  -8.9023  -7.0001  -4.7360  -4.5585  -3.5710
    -2.5429  -1.5425  -1.5203  -1.0072  -0.0821  -0.0039   0.7097   3.6696
     6.3206   9.4138  10.7952  11.2065

          k =-0.5402 0.5746-1.5806 (  2286 PWs)   bands (ev):

   -10.2442 -10.2439  -9.4801  -9.4790  -8.1027  -8.1012  -5.9298  -5.9292
    -3.6957  -3.6952  -1.6036  -1.6028   2.1012   2.1019   2.6303   2.6321
     6.6506   6.6535   7.7417   7.7422

          k =-0.5402 0.5744-0.7902 (  2284 PWs)   bands (ev):

   -13.4198 -12.4899 -11.5163  -8.9019  -7.0010  -4.7354  -4.5567  -3.5724
    -2.5448  -1.5416  -1.5206  -1.0057  -0.0830  -0.0035   0.7091   3.6706
     6.3196   9.4154  10.7941  11.2070

     the Fermi energy is     3.9338 ev

!    total energy              =     -91.16444989 Ry
     Harris-Foulkes estimate   =     -91.16444990 Ry
     estimated scf accuracy    <          4.5E-10 Ry

     The total energy is the sum of the following terms:

     one-electron contribution =     -58.54138542 Ry
     hartree contribution      =      42.52958352 Ry
     xc contribution           =     -27.95994532 Ry
     ewald contribution        =     -47.19352648 Ry
     smearing contrib. (-TS)   =       0.00082382 Ry

     convergence has been achieved in   8 iterations

     Forces acting on atoms (cartesian axes, Ry/au):

     atom    1 type  1   force =     0.00026092   -0.00153998    0.00348760
     atom    2 type  1   force =     0.00138149    0.00046039   -0.00091814
     atom    3 type  1   force =    -0.00150890   -0.00038906   -0.00404072
     atom    4 type  1   force =    -0.00015328    0.00148136    0.00149218
     atom    5 type  1   force =     0.00084360    0.00060786   -0.00326688
     atom    6 type  1   force =    -0.00091453   -0.00057622   -0.00070541
     atom    7 type  1   force =    -0.00015627   -0.00106717    0.00008959
     atom    8 type  1   force =     0.00024697    0.00102281    0.00386178

     Total force =     0.008449     Total SCF correction =     0.000005


     Computing stress (Cartesian axis) and pressure

          total   stress  (Ry/bohr**3)                   (kbar)     P=       -0.41
  -0.00001663  -0.00000807   0.00000135           -2.45       -1.19        0.20
  -0.00000807   0.00000713  -0.00000081           -1.19        1.05       -0.12
   0.00000135  -0.00000081   0.00000114            0.20       -0.12        0.17


     number of scf cycles    =  51
     number of bfgs steps    =  38

     enthalpy old            =     -91.1643410846 Ry
     enthalpy new            =     -91.1644100685 Ry

     CASE: enthalpy_new < enthalpy_old

     new trust radius        =       0.0643262106 bohr
     new conv_thr            =       0.0000000100 Ry

     new unit-cell volume =    583.20002 a.u.^3 (    86.42133 Ang^3 )
     density =      1.84459 g/cm^3

CELL_PARAMETERS (bohr)
  14.020911623   0.419657431  -0.000787104
   0.283471524   8.938688033   0.003127400
   0.000423232  -0.000816638   4.657789885

ATOMIC_POSITIONS (crystal)
C             0.4644644798        0.9661547367       -0.6013065216
C             0.7971459130        0.6329047205        0.4057166165
C            -0.0354242598        0.4660959392        0.4094186437
C             0.2971537706        0.1327322417        1.4022560268
C             1.0471780093        0.3829244941        0.9090538820
C             0.7145155085        0.7160599428        0.9046553342
C             0.2144462944        0.2160031559        1.9035352903
C             0.5471902843       -0.1170892308       -0.1011642718



     Writing output data file ./pp.save/
     NEW-OLD atomic charge density approx. for the potential
     extrapolated charge   31.85364, renormalised to   32.00000

     total cpu time spent up to now is     2172.0 secs

     Self-consistent Calculation

     iteration #  1     ecut=    40.00 Ry     beta= 0.50
     Davidson diagonalization with overlap
     ethr =  1.00E-06,  avg # of iterations =  5.1

     total cpu time spent up to now is     2199.3 secs

     total energy              =     -91.16388393 Ry
     Harris-Foulkes estimate   =     -91.38300421 Ry
     estimated scf accuracy    <       0.00035262 Ry

     iteration #  2     ecut=    40.00 Ry     beta= 0.50
     Davidson diagonalization with overlap
     ethr =  1.10E-06,  avg # of iterations =  3.5

     total cpu time spent up to now is     2218.1 secs

     total energy              =     -91.16458184 Ry
     Harris-Foulkes estimate   =     -91.16465653 Ry
     estimated scf accuracy    <       0.00024380 Ry

     iteration #  3     ecut=    40.00 Ry     beta= 0.50
     Davidson diagonalization with overlap
