
     Program PWSCF v.6.5 starts on  9Jul2022 at  5:56:31 

     This program is part of the open-source Quantum ESPRESSO suite
     for quantum simulation of materials; please cite
         "P. Giannozzi et al., J. Phys.:Condens. Matter 21 395502 (2009);
         "P. Giannozzi et al., J. Phys.:Condens. Matter 29 465901 (2017);
          URL http://www.quantum-espresso.org", 
     in publications or presentations arising from this work. More details at
     http://www.quantum-espresso.org/quote

     Parallel version (MPI), running on    96 processors

     MPI processes distributed on     2 nodes
     R & G space division:  proc/nbgrp/npool/nimage =      96
     Waiting for input...
     Reading input from standard input
     Message from routine read_cards :
     DEPRECATED: no units specified in CELL_PARAMETERS card

     Current dimensions of program PWSCF are:
     Max number of different atomic species (ntypx) = 10
     Max number of k-points (npk) =  40000
     Max angular momentum in pseudopotentials (lmaxx) =  3

     Subspace diagonalization in iterative solution of the eigenvalue problem:
     one sub-group per band group will be used
     scalapack distributed-memory algorithm (size of sub-group:  9*  9 procs)

 
     Parallelization info
     --------------------
     sticks:   dense  smooth     PW     G-vecs:    dense   smooth      PW
     Min          15      15      4                  195      195      32
     Max          16      16      6                  198      198      35
     Sum        1503    1503    457                18849    18849    3141
 


     bravais-lattice index     =            0
     lattice parameter (alat)  =      14.2566  a.u.
     unit-cell volume          =     551.4314 (a.u.)^3
     number of atoms/cell      =            8
     number of atomic types    =            1
     number of electrons       =        32.00
     number of Kohn-Sham states=           20
     kinetic-energy cutoff     =      40.0000  Ry
     charge density cutoff     =     160.0000  Ry
     convergence threshold     =      1.0E-08
     mixing beta               =       0.5000
     number of iterations used =            8  plain     mixing
     Exchange-correlation=  SLA  PW   PBE  PBE
                           (   1   4   3   4   0   0   0)
     nstep                     =          250


     celldm(1)=  14.256587  celldm(2)=   0.000000  celldm(3)=   0.000000
     celldm(4)=   0.000000  celldm(5)=   0.000000  celldm(6)=   0.000000

     crystal axes: (cart. coord. in units of alat)
               a(1) = (   0.999945   0.010479   0.000786 )  
               a(2) = (   0.020847   0.583218   0.001017 )  
               a(3) = (   0.000274   0.000323   0.326439 )  

     reciprocal axes: (cart. coord. in units 2 pi/alat)
               b(1) = (  1.000431 -0.035758 -0.000803 )  
               b(2) = ( -0.017975  1.715270 -0.001680 )  
               b(3) = ( -0.002352 -0.005258  3.063371 )  


     PseudoPot. # 1 for C  read from file:
     ./C.pbe-van_bm.upf
     MD5 check sum: 1a69bf6b8db32088f5b2163dbdb77a27
     Pseudo is Ultrasoft, Zval =  4.0
     Generated by new atomic code, or converted to UPF format
     Using radial grid of  721 points,  4 beta functions with: 
                l(1) =   0
                l(2) =   0
                l(3) =   1
                l(4) =   1
     Q(r) pseudized with  8 coefficients,  rinner =    0.800   0.800   0.800


     atomic species   valence    mass     pseudopotential
        C              4.00    12.00000     C ( 1.00)

     No symmetry found



   Cartesian axes

     site n.     atom                  positions (alat units)
         1           C   tau(   1) = (   0.3855069   0.2706316   0.1950726  )
         2           C   tau(   2) = (   0.4661587   0.2231075   0.0318376  )
         3           C   tau(   3) = (   0.2215738   0.3665323   0.1952638  )
         4           C   tau(   4) = (   0.1405831   0.4136380   0.0320825  )
         5           C   tau(   5) = (   0.9767346   0.5200688   0.3594036  )
         6           C   tau(   6) = (   0.8957489   0.5672317   0.1961921  )
         7           C   tau(   7) = (   0.6300983   0.1272169   0.0318935  )
         8           C   tau(   8) = (   0.7110250   0.0799683   0.1951251  )

     number of k points=    16  Marzari-Vanderbilt smearing, width (Ry)=  0.0200
                       cart. coord. in units 2pi/alat
        k(    1) = (   0.0000000   0.0000000   0.0000000), wk =   0.0666667
        k(    2) = (  -0.0004703  -0.0010516   0.6126741), wk =   0.1333333
        k(    3) = (  -0.0009406  -0.0021033   1.2253483), wk =   0.1333333
        k(    4) = (  -0.0059915   0.5717566  -0.0005601), wk =   0.1333333
        k(    5) = (  -0.0064619   0.5707050   0.6121140), wk =   0.1333333
        k(    6) = (  -0.0069322   0.5696533   1.2247881), wk =   0.1333333
        k(    7) = (  -0.0050509   0.5738599  -1.2259084), wk =   0.1333333
        k(    8) = (  -0.0055212   0.5728082  -0.6132342), wk =   0.1333333
        k(    9) = (  -0.5002153   0.0178790   0.0004015), wk =   0.0666667
        k(   10) = (  -0.5006856   0.0168273   0.6130756), wk =   0.1333333
        k(   11) = (  -0.5011559   0.0157757   1.2257498), wk =   0.1333333
        k(   12) = (  -0.5062068   0.5896356  -0.0001586), wk =   0.1333333
        k(   13) = (  -0.5066772   0.5885839   0.6125155), wk =   0.1333333
        k(   14) = (  -0.5071475   0.5875323   1.2251897), wk =   0.1333333
        k(   15) = (  -0.5052662   0.5917388  -1.2255069), wk =   0.1333333
        k(   16) = (  -0.5057365   0.5906872  -0.6128327), wk =   0.1333333

     Dense  grid:    18849 G-vectors     FFT dimensions: (  60,  36,  20)

     Estimated max dynamical RAM per process >       1.57 MB

     Estimated total dynamical RAM >     150.70 MB

     Initial potential from superposition of free atoms

     starting charge   31.99968, renormalised to   32.00000
     Starting wfcs are   32 randomized atomic wfcs

     total cpu time spent up to now is        0.7 secs

     Self-consistent Calculation

     iteration #  1     ecut=    40.00 Ry     beta= 0.50
     Davidson diagonalization with overlap
     ethr =  1.00E-02,  avg # of iterations =  2.4

     total cpu time spent up to now is        1.7 secs

     total energy              =     -91.11666131 Ry
     Harris-Foulkes estimate   =     -91.49713533 Ry
     estimated scf accuracy    <       0.77965348 Ry

     iteration #  2     ecut=    40.00 Ry     beta= 0.50
     Davidson diagonalization with overlap
     ethr =  2.44E-03,  avg # of iterations =  2.8

     total cpu time spent up to now is        2.6 secs

     total energy              =     -91.14592371 Ry
     Harris-Foulkes estimate   =     -91.17844005 Ry
     estimated scf accuracy    <       0.07195018 Ry

     iteration #  3     ecut=    40.00 Ry     beta= 0.50
     Davidson diagonalization with overlap
     ethr =  2.25E-04,  avg # of iterations =  3.6

     total cpu time spent up to now is        3.6 secs

     total energy              =     -91.15729740 Ry
     Harris-Foulkes estimate   =     -91.15730455 Ry
     estimated scf accuracy    <       0.00205264 Ry

     iteration #  4     ecut=    40.00 Ry     beta= 0.50
     Davidson diagonalization with overlap
     ethr =  6.41E-06,  avg # of iterations =  3.7

     total cpu time spent up to now is        4.7 secs

     total energy              =     -91.15749289 Ry
     Harris-Foulkes estimate   =     -91.15756188 Ry
     estimated scf accuracy    <       0.00016812 Ry

     iteration #  5     ecut=    40.00 Ry     beta= 0.50
     Davidson diagonalization with overlap
     ethr =  5.25E-07,  avg # of iterations =  2.1

     total cpu time spent up to now is        5.5 secs

     total energy              =     -91.15752896 Ry
     Harris-Foulkes estimate   =     -91.15753065 Ry
     estimated scf accuracy    <       0.00000557 Ry

     iteration #  6     ecut=    40.00 Ry     beta= 0.50
     Davidson diagonalization with overlap
     ethr =  1.74E-08,  avg # of iterations =  2.4

     total cpu time spent up to now is        6.4 secs

     total energy              =     -91.15752968 Ry
     Harris-Foulkes estimate   =     -91.15753015 Ry
     estimated scf accuracy    <       0.00000131 Ry

     iteration #  7     ecut=    40.00 Ry     beta= 0.50
     Davidson diagonalization with overlap
     ethr =  4.08E-09,  avg # of iterations =  2.0

     total cpu time spent up to now is        7.1 secs

     total energy              =     -91.15752990 Ry
     Harris-Foulkes estimate   =     -91.15752990 Ry
     estimated scf accuracy    <       0.00000003 Ry

     iteration #  8     ecut=    40.00 Ry     beta= 0.50
     Davidson diagonalization with overlap
     ethr =  8.82E-11,  avg # of iterations =  3.0

     total cpu time spent up to now is        8.2 secs

     End of self-consistent calculation

          k = 0.0000 0.0000 0.0000 (  2375 PWs)   bands (ev):

   -14.0531 -12.5508 -12.5507  -8.8056  -7.6350  -1.8898  -1.8897  -1.6463
    -0.9329  -0.3841  -0.3833   0.4173   0.4173   2.3748   2.5633   2.7965
     6.9024   8.9156  12.2104  12.2160

          k =-0.0005-0.0011 0.6127 (  2364 PWs)   bands (ev):

   -13.3435 -11.8577 -11.8572  -8.2021  -7.0736  -3.3681  -2.6343  -2.6341
    -1.1215  -1.1204  -0.8189   0.1207   0.4220   0.4268   1.1422   3.6671
     6.7044   9.8283  11.4821  11.4891

          k =-0.0009-0.0021 1.2253 (  2354 PWs)   bands (ev):

   -11.2548  -9.8365  -9.8354  -8.0392  -6.4058  -6.4018  -6.4010  -4.6098
    -3.4968  -1.8717  -0.9698  -0.9694   1.5348   2.5165   2.5244   4.7375
     6.2173   8.0641   8.0768  10.1785

          k =-0.0060 0.5718-0.0006 (  2352 PWs)   bands (ev):

   -13.8451 -13.3142 -11.4712 -10.0475  -6.2043  -4.1221  -1.9270  -1.7437
    -0.7667  -0.2957   0.2370   1.2549   1.2721   1.8966   2.0452   2.2375
     8.3503  10.7022  10.8361  12.2343

          k =-0.0065 0.5707 0.6121 (  2367 PWs)   bands (ev):

   -13.1393 -12.6147 -10.7918  -9.3997  -5.7530  -4.0127  -3.1509  -2.4554
    -1.5212  -1.0832  -0.8995  -0.4638   0.3230   1.0872   2.0172   3.0271
     7.9264   9.7337  11.6811  13.1436

          k =-0.0069 0.5697 1.2248 (  2354 PWs)   bands (ev):

   -11.0620 -10.5606  -8.8688  -8.0536  -7.1091  -7.0753  -5.4345  -4.2738
    -3.6281  -2.1310  -1.2494  -0.6715   1.3100   1.4653   3.5285   4.1666
     6.6698   7.1907   9.2656   9.9544

          k =-0.0051 0.5739-1.2259 (  2354 PWs)   bands (ev):

   -11.0612 -10.5605  -8.8692  -8.0539  -7.1107  -7.0748  -5.4347  -4.2730
    -3.6283  -2.1313  -1.2493  -0.6712   1.3004   1.4656   3.5274   4.1764
     6.6773   7.1918   9.2660   9.9460

          k =-0.0055 0.5728-0.6132 (  2362 PWs)   bands (ev):

   -13.1388 -12.6146 -10.7919  -9.3999  -5.7538  -4.0119  -3.1512  -2.4563
    -1.5216  -1.0886  -0.8995  -0.4628   0.3238   1.0869   2.0168   3.0316
     7.9318   9.7344  11.7042  13.1436

          k =-0.5002 0.0179 0.0004 (  2376 PWs)   bands (ev):

   -13.6728 -13.6726 -10.7487 -10.7478  -5.1641  -5.1636  -1.3540  -1.3526
    -0.5754  -0.5743   1.1471   1.1489   1.3279   1.3291   1.6944   1.6963
     9.1297   9.1313   9.8162   9.8186

          k =-0.5007 0.0168 0.6131 (  2358 PWs)   bands (ev):

   -12.9670 -12.9665 -10.0853 -10.0843  -4.8493  -4.8485  -2.8861  -2.8848
    -0.9631  -0.9615  -0.5326  -0.5284   0.8158   0.8176   2.1215   2.1246
     8.7146   8.7196  10.7067  10.7202

          k =-0.5012 0.0158 1.2257 (  2335 PWs)   bands (ev):

   -10.8914 -10.8906  -8.3412  -8.3396  -7.2624  -7.2620  -4.8380  -4.8368
    -2.8564  -2.8557  -0.8725  -0.8713   1.7636   1.7703   3.7608   3.7658
     6.9434   6.9517   9.4046   9.4123

          k =-0.5062 0.5896-0.0002 (  2370 PWs)   bands (ev):

   -13.9369 -13.0205 -12.0006  -9.3314  -7.1425  -2.9924  -2.3622  -0.8820
    -0.8095  -0.6166  -0.0842   0.0277   0.8436   2.2828   2.3919   3.0590
     7.8246  10.6980  11.4807  12.2667

          k =-0.5067 0.5886 0.6125 (  2351 PWs)   bands (ev):

   -13.2316 -12.3209 -11.3156  -8.7044  -6.6110  -3.2963  -3.2627  -2.0578
    -1.8618  -1.5061  -0.3594  -0.0652   0.1914   0.7250   1.1522   3.8786
     7.3070  10.6224  11.5771  12.2834

          k =-0.5071 0.5875 1.2252 (  2340 PWs)   bands (ev):

   -11.1554 -10.2713  -9.3386  -7.9949  -6.8078  -6.7024  -5.9212  -4.3111
    -3.7711  -1.6726  -1.4621  -0.6950   0.9465   2.3313   2.7685   4.3337
     6.6696   7.7251   8.4152  10.4100

          k =-0.5053 0.5917-1.2255 (  2346 PWs)   bands (ev):

   -11.1547 -10.2708  -9.3388  -7.9959  -6.8089  -6.7023  -5.9203  -4.3118
    -3.7707  -1.6722  -1.4620  -0.6950   0.9403   2.3240   2.7746   4.3399
     6.6748   7.7327   8.4080  10.4042

          k =-0.5057 0.5907-0.6128 (  2351 PWs)   bands (ev):

   -13.2312 -12.3206 -11.3158  -8.7047  -6.6109  -3.2966  -3.2640  -2.0566
    -1.8612  -1.5096  -0.3602  -0.0655   0.1871   0.7282   1.1528   3.8811
     7.3120  10.6264  11.5900  12.2800

     the Fermi energy is     4.9594 ev

!    total energy              =     -91.15752991 Ry
     Harris-Foulkes estimate   =     -91.15752991 Ry
     estimated scf accuracy    <          3.3E-09 Ry

     The total energy is the sum of the following terms:

     one-electron contribution =     -46.94229701 Ry
     hartree contribution      =      37.41017350 Ry
     xc contribution           =     -27.96706673 Ry
     ewald contribution        =     -53.65876880 Ry
     smearing contrib. (-TS)   =       0.00042912 Ry

     convergence has been achieved in   8 iterations

     Forces acting on atoms (cartesian axes, Ry/au):

     atom    1 type  1   force =    -0.02063637    0.01183315    0.00052576
     atom    2 type  1   force =     0.02077121   -0.01166469    0.00023254
     atom    3 type  1   force =     0.02053516   -0.01188147   -0.00021614
     atom    4 type  1   force =    -0.02055597    0.01147285   -0.00005412
     atom    5 type  1   force =     0.02036581   -0.01127453   -0.00037130
     atom    6 type  1   force =    -0.02020880    0.01162321   -0.00012880
     atom    7 type  1   force =    -0.02055944    0.01148764    0.00016234
     atom    8 type  1   force =     0.02028841   -0.01159616   -0.00015027

     Total force =     0.066612     Total SCF correction =     0.000118


     Computing stress (Cartesian axis) and pressure

          total   stress  (Ry/bohr**3)                   (kbar)     P=        1.72
  -0.00017817   0.00009667  -0.00000064          -26.21       14.22       -0.09
   0.00009667  -0.00006574   0.00000038           14.22       -9.67        0.06
  -0.00000064   0.00000038   0.00027900           -0.09        0.06       41.04


     BFGS Geometry Optimization

     number of scf cycles    =   1
     number of bfgs steps    =   0

     enthalpy new            =     -91.1574924267 Ry

     new trust radius        =       0.0327502225 bohr
     new conv_thr            =       0.0000000100 Ry

     new unit-cell volume =    551.88972 a.u.^3 (    81.78162 Ang^3 )
     density =      1.94924 g/cm^3

CELL_PARAMETERS (bohr)
  14.192638178   0.183607884   0.011051171
   0.315970523   8.301739253   0.014674426
   0.003819199   0.004645557   4.686352919

ATOMIC_POSITIONS (crystal)
C             0.3743611704        0.4583986521        0.5953620127
C             0.4598428265        0.3728273568        0.0953118422
C             0.2098768310        0.6229356254        0.5956715526
C             0.1243557485        0.7083262693        0.0957625298
C             0.9597274334        0.8725158812        1.0958760153
C             0.8742467377        0.9579489313        0.5958913702
C             0.6243234562        0.2082400286        0.0955850362
C             0.7097677965        0.1226382553        0.5956166409



     Writing output data file ./pp.save/
     NEW-OLD atomic charge density approx. for the potential
     extrapolated charge   32.02657, renormalised to   32.00000

     total cpu time spent up to now is        8.4 secs

     Self-consistent Calculation

     iteration #  1     ecut=    40.00 Ry     beta= 0.50
     Davidson diagonalization with overlap
     ethr =  1.00E-06,  avg # of iterations =  5.8

     total cpu time spent up to now is       11.4 secs

     total energy              =     -91.15596631 Ry
     Harris-Foulkes estimate   =     -91.12511324 Ry
     estimated scf accuracy    <       0.00189912 Ry

     iteration #  2     ecut=    40.00 Ry     beta= 0.50
     Davidson diagonalization with overlap
     ethr =  5.93E-06,  avg # of iterations =  1.0

     total cpu time spent up to now is       11.9 secs

     total energy              =     -91.15596340 Ry
     Harris-Foulkes estimate   =     -91.15609622 Ry
     estimated scf accuracy    <       0.00024344 Ry

     iteration #  3     ecut=    40.00 Ry     beta= 0.50
     Davidson diagonalization with overlap
     ethr =  7.61E-07,  avg # of iterations =  2.0

     total cpu time spent up to now is       12.8 secs

     total energy              =     -91.15601181 Ry
     Harris-Foulkes estimate   =     -91.15601236 Ry
     estimated scf accuracy    <       0.00000449 Ry

     iteration #  4     ecut=    40.00 Ry     beta= 0.50
     Davidson diagonalization with overlap
     ethr =  1.40E-08,  avg # of iterations =  2.2

     total cpu time spent up to now is       13.7 secs

     total energy              =     -91.15601268 Ry
     Harris-Foulkes estimate   =     -91.15601270 Ry
     estimated scf accuracy    <       0.00000123 Ry

     iteration #  5     ecut=    40.00 Ry     beta= 0.50
     Davidson diagonalization with overlap
     ethr =  3.86E-09,  avg # of iterations =  2.0

     total cpu time spent up to now is       14.5 secs

     total energy              =     -91.15601270 Ry
     Harris-Foulkes estimate   =     -91.15601300 Ry
     estimated scf accuracy    <       0.00000091 Ry

     iteration #  6     ecut=    40.00 Ry     beta= 0.50
     Davidson diagonalization with overlap
     ethr =  2.83E-09,  avg # of iterations =  2.0

     total cpu time spent up to now is       15.2 secs

     End of self-consistent calculation

          k = 0.0000 0.0000 0.0000 (  2375 PWs)   bands (ev):

   -14.0504 -12.5350 -12.5349  -8.5731  -7.8770  -2.0042  -2.0041  -1.6453
    -0.9091  -0.3416  -0.3411   0.5347   0.5348   2.2062   2.7163   3.0755
     6.6172   8.9138  12.2838  12.2881

          k =-0.0005-0.0011 0.6084 (  2364 PWs)   bands (ev):

   -13.3489 -11.8499 -11.8494  -7.9664  -7.3568  -3.3184  -2.7497  -2.7478
    -1.0142  -1.0129  -0.8394   0.4218   0.4376   0.4428   0.8030   3.9310
     6.4027   9.8075  11.4067  11.4126

          k =-0.0009-0.0021 1.2169 (  2354 PWs)   bands (ev):

   -11.2883  -9.8674  -9.8668  -8.1723  -6.3810  -6.3795  -6.1595  -4.7364
    -3.2320  -2.1409  -0.9777  -0.9772   1.4447   2.4265   2.4359   4.5197
     6.4353   8.1338   8.1448  10.3187

          k =-0.0074 0.5727-0.0006 (  2352 PWs)   bands (ev):

   -13.8409 -13.3057 -11.4430  -9.9902  -6.2790  -4.1946  -1.9227  -1.7274
    -0.7328  -0.2315   0.0426   1.3466   1.4691   1.5976   2.3368   2.4114
     8.1520  10.5583  10.8395  12.2694

          k =-0.0079 0.5717 0.6079 (  2367 PWs)   bands (ev):

   -13.1432 -12.6141 -10.7719  -9.3508  -5.8677  -4.1476  -3.0813  -2.3352
    -1.5590  -1.1001  -0.9049  -0.3887   0.3471   0.9826   2.0717   3.1603
     7.7454   9.6233  11.6580  13.0887

          k =-0.0083 0.5706 1.2163 (  2354 PWs)   bands (ev):

   -11.0945 -10.5910  -8.9207  -8.1960  -7.0327  -6.9475  -5.3933  -4.1677
    -3.6603  -2.1347  -1.3577  -0.7087   1.2236   1.3847   3.4008   4.0052
     6.8321   7.3108   9.3439  10.0729

          k =-0.0065 0.5748-1.2174 (  2354 PWs)   bands (ev):

   -11.0936 -10.5911  -8.9201  -8.1977  -7.0337  -6.9470  -5.3928  -4.1676
    -3.6613  -2.1341  -1.3569  -0.7093   1.2146   1.3841   3.4018   4.0130
     6.8419   7.3093   9.3455  10.0637

          k =-0.0069 0.5738-0.6090 (  2362 PWs)   bands (ev):

   -13.1426 -12.6141 -10.7718  -9.3513  -5.8674  -4.1487  -3.0823  -2.3341
    -1.5576  -1.1052  -0.9052  -0.3893   0.3458   0.9842   2.0720   3.1642
     7.7517   9.6226  11.6810  13.0894

          k =-0.5025 0.0191 0.0004 (  2376 PWs)   bands (ev):

   -13.6668 -13.6668 -10.7105 -10.7092  -5.2316  -5.2309  -1.3436  -1.3423
    -0.5295  -0.5284   0.9012   0.9031   1.4474   1.4486   1.9392   1.9418
     8.9996   9.0015   9.8231   9.8254

          k =-0.5030 0.0181 0.6088 (  2358 PWs)   bands (ev):

   -12.9691 -12.9687 -10.0555 -10.0542  -4.9697  -4.9684  -2.7923  -2.7912
    -0.9541  -0.9516  -0.5448  -0.5405   0.7856   0.7879   2.2053   2.2091
     8.5851   8.5888  10.6956  10.7088

          k =-0.5034 0.0170 1.2173 (  2335 PWs)   bands (ev):

   -10.9228 -10.9223  -8.4409  -8.4397  -7.1636  -7.1617  -4.7731  -4.7712
    -2.8694  -2.8687  -0.9373  -0.9361   1.6745   1.6819   3.6426   3.6498
     7.0479   7.0536   9.5064   9.5133

          k =-0.5099 0.5918-0.0002 (  2370 PWs)   bands (ev):

   -13.9336 -13.0088 -11.9796  -9.2264  -7.2580  -3.0817  -2.3616  -0.9584
    -0.8552  -0.5872  -0.0251   0.1149   0.9981   2.0509   2.6101   3.3102
     7.5331  10.7174  11.4159  12.2670

          k =-0.5104 0.5908 0.6083 (  2351 PWs)   bands (ev):

   -13.2364 -12.3173 -11.3026  -8.6069  -6.7589  -3.4020  -3.2417  -2.1358
    -1.7326  -1.5255  -0.2892   0.1131   0.1950   0.7565   0.9373   4.0939
     7.0420  10.5360  11.5717  12.2467

          k =-0.5108 0.5897 1.2167 (  2340 PWs)   bands (ev):

   -11.1883 -10.3013  -9.3755  -8.1355  -6.7832  -6.5002  -5.8931  -4.3857
    -3.5906  -1.8571  -1.4646  -0.7146   0.8618   2.2392   2.6818   4.1350
     6.8860   7.7877   8.4953  10.5492

          k =-0.5090 0.5940-1.2170 (  2346 PWs)   bands (ev):

   -11.1877 -10.3005  -9.3765  -8.1359  -6.7830  -6.5014  -5.8931  -4.3856
    -3.5897  -1.8572  -1.4654  -0.7137   0.8555   2.2333   2.6862   4.1422
     6.8900   7.7977   8.4861  10.5436

          k =-0.5094 0.5929-0.6086 (  2351 PWs)   bands (ev):

   -13.2360 -12.3169 -11.3030  -8.6070  -6.7595  -3.4011  -3.2417  -2.1367
    -1.7344  -1.5291  -0.2876   0.1142   0.1913   0.7592   0.9363   4.0971
     7.0459  10.5414  11.5843  12.2427

     the Fermi energy is     4.6828 ev

!    total energy              =     -91.15601284 Ry
     Harris-Foulkes estimate   =     -91.15601285 Ry
     estimated scf accuracy    <          5.1E-09 Ry

     The total energy is the sum of the following terms:

     one-electron contribution =     -46.86184887 Ry
     hartree contribution      =      37.35960699 Ry
     xc contribution           =     -27.96056338 Ry
     ewald contribution        =     -53.69418519 Ry
     smearing contrib. (-TS)   =       0.00097760 Ry

     convergence has been achieved in   6 iterations

     Forces acting on atoms (cartesian axes, Ry/au):

     atom    1 type  1   force =     0.03497473   -0.02049143    0.00008212
     atom    2 type  1   force =    -0.03479111    0.02055518    0.00048649
     atom    3 type  1   force =    -0.03486912    0.02030420    0.00008756
     atom    4 type  1   force =     0.03451575   -0.02036959   -0.00026722
     atom    5 type  1   force =    -0.03429278    0.02030865   -0.00004766
     atom    6 type  1   force =     0.03432429   -0.02003012   -0.00036413
     atom    7 type  1   force =     0.03456539   -0.02046999   -0.00014755
     atom    8 type  1   force =    -0.03442715    0.02019310    0.00017038

     Total force =     0.113514     Total SCF correction =     0.000061


     Computing stress (Cartesian axis) and pressure

          total   stress  (Ry/bohr**3)                   (kbar)     P=       -0.22
   0.00022260  -0.00014108   0.00000038           32.75      -20.75        0.06
  -0.00014108   0.00007384  -0.00000121          -20.75       10.86       -0.18
   0.00000038  -0.00000121  -0.00030097            0.06       -0.18      -44.27


     number of scf cycles    =   2
     number of bfgs steps    =   1

     enthalpy old            =     -91.1574924267 Ry
     enthalpy new            =     -91.1559753269 Ry

     CASE: enthalpy_new > enthalpy_old

     new trust radius        =       0.0130969920 bohr
     new conv_thr            =       0.0000000100 Ry

     new unit-cell volume =    551.62133 a.u.^3 (    81.74185 Ang^3 )
     density =      1.95019 g/cm^3

CELL_PARAMETERS (bohr)
  14.230375671   0.163169592   0.011140092
   0.304755639   8.309482951   0.014570211
   0.003867475   0.004618338   4.666963171

ATOMIC_POSITIONS (crystal)
C             0.3752441339        0.4575325239        0.5952950881
C             0.4589544876        0.3736815302        0.0952814654
C             0.2089980490        0.6238051727        0.5956987062
C             0.1252347818        0.7074860612        0.0957699804
C             0.9588566561        0.8733416601        1.0959232065
C             0.8751114381        0.9570981706        0.5959084757
C             0.6252026641        0.2073987693        0.0955647005
C             0.7088997896        0.1234871121        0.5956353771



     Writing output data file ./pp.save/
     NEW-OLD atomic charge density approx. for the potential
     extrapolated charge   31.98443, renormalised to   32.00000

     total cpu time spent up to now is       15.3 secs

     Self-consistent Calculation

     iteration #  1     ecut=    40.00 Ry     beta= 0.50
     Davidson diagonalization with overlap
     ethr =  1.00E-06,  avg # of iterations =  5.0

     total cpu time spent up to now is       17.2 secs

     total energy              =     -91.15879221 Ry
     Harris-Foulkes estimate   =     -91.17779385 Ry
     estimated scf accuracy    <       0.00068673 Ry

     iteration #  2     ecut=    40.00 Ry     beta= 0.50
     Davidson diagonalization with overlap
     ethr =  2.15E-06,  avg # of iterations =  1.1

     total cpu time spent up to now is       17.8 secs

     total energy              =     -91.15879503 Ry
     Harris-Foulkes estimate   =     -91.15884145 Ry
     estimated scf accuracy    <       0.00008636 Ry

     iteration #  3     ecut=    40.00 Ry     beta= 0.50
     Davidson diagonalization with overlap
     ethr =  2.70E-07,  avg # of iterations =  2.0

     total cpu time spent up to now is       18.7 secs

     total energy              =     -91.15881249 Ry
     Harris-Foulkes estimate   =     -91.15881262 Ry
     estimated scf accuracy    <       0.00000165 Ry

     iteration #  4     ecut=    40.00 Ry     beta= 0.50
     Davidson diagonalization with overlap
     ethr =  5.15E-09,  avg # of iterations =  2.2

     total cpu time spent up to now is       19.7 secs

     total energy              =     -91.15881284 Ry
     Harris-Foulkes estimate   =     -91.15881279 Ry
     estimated scf accuracy    <       0.00000041 Ry

     iteration #  5     ecut=    40.00 Ry     beta= 0.50
     Davidson diagonalization with overlap
     ethr =  1.29E-09,  avg # of iterations =  1.1

     total cpu time spent up to now is       20.4 secs

     total energy              =     -91.15881285 Ry
     Harris-Foulkes estimate   =     -91.15881288 Ry
     estimated scf accuracy    <       0.00000006 Ry

     iteration #  6     ecut=    40.00 Ry     beta= 0.50
     Davidson diagonalization with overlap
     ethr =  1.81E-10,  avg # of iterations =  2.0

     total cpu time spent up to now is       21.3 secs

     End of self-consistent calculation

          k = 0.0000 0.0000 0.0000 (  2375 PWs)   bands (ev):

   -14.0509 -12.5429 -12.5428  -8.7123  -7.7306  -1.9352  -1.9351  -1.6445
    -0.9207  -0.3654  -0.3647   0.4672   0.4672   2.4188   2.5123   2.9085
     6.7885   8.9147  12.2401  12.2453

          k =-0.0005-0.0011 0.6110 (  2364 PWs)   bands (ev):

   -13.3444 -11.8527 -11.8523  -8.1074  -7.1859  -3.3466  -2.6776  -2.6770
    -1.0794  -1.0792  -0.8258   0.2421   0.4299   0.4349   1.0049   3.7729
     6.5835   9.8201  11.4507  11.4572

          k =-0.0009-0.0021 1.2219 (  2354 PWs)   bands (ev):

   -11.2664  -9.8458  -9.8450  -8.0884  -6.3925  -6.3916  -6.3063  -4.6632
    -3.3901  -1.9808  -0.9753  -0.9752   1.4999   2.4821   2.4906   4.6508
     6.3044   8.0910   8.1031  10.2339

          k =-0.0066 0.5721-0.0006 (  2352 PWs)   bands (ev):

   -13.8422 -13.3095 -11.4577 -10.0208  -6.2363  -4.1515  -1.9240  -1.7358
    -0.7504  -0.2671   0.1596   1.2940   1.3536   1.7764   2.1636   2.3095
     8.2689  10.6421  10.8380  12.2489

          k =-0.0070 0.5711 0.6104 (  2367 PWs)   bands (ev):

   -13.1395 -12.6129 -10.7814  -9.3757  -5.8019  -4.0677  -3.1215  -2.4056
    -1.5289  -1.0887  -0.9004  -0.4205   0.3263   1.0322   2.0416   3.0835
     7.8508   9.6868  11.6727  13.1212

          k =-0.0075 0.5700 1.2214 (  2354 PWs)   bands (ev):

   -11.0731 -10.5705  -8.8846  -8.1064  -7.0590  -7.0435  -5.4154  -4.2267
    -3.6443  -2.1349  -1.2982  -0.6899   1.2765   1.4342   3.4794   4.1041
     6.7331   7.2373   9.2965  10.0013

          k =-0.0056 0.5743-1.2225 (  2354 PWs)   bands (ev):

   -11.0722 -10.5704  -8.8847  -8.1073  -7.0590  -7.0442  -5.4154  -4.2261
    -3.6448  -2.1349  -1.2978  -0.6899   1.2672   1.4341   3.4792   4.1131
     6.7416   7.2374   9.2973   9.9926

          k =-0.0061 0.5732-0.6115 (  2362 PWs)   bands (ev):

   -13.1390 -12.6129 -10.7814  -9.3760  -5.8022  -4.0677  -3.1220  -2.4057
    -1.5287  -1.0940  -0.9005  -0.4200   0.3264   1.0325   2.0415   3.0878
     7.8565   9.6869  11.6958  13.1216

          k =-0.5011 0.0184 0.0004 (  2376 PWs)   bands (ev):

   -13.6692 -13.6690 -10.7301 -10.7300  -5.1920  -5.1918  -1.3484  -1.3470
    -0.5539  -0.5535   1.0497   1.0499   1.3783   1.3789   1.7956   1.7959
     9.0764   9.0773   9.8192   9.8215

          k =-0.5016 0.0173 0.6114 (  2358 PWs)   bands (ev):

   -12.9664 -12.9660 -10.0697 -10.0694  -4.8989  -4.8987  -2.8466  -2.8461
    -0.9487  -0.9482  -0.5361  -0.5319   0.7952   0.7954   2.1578   2.1610
     8.6604   8.6647  10.7026  10.7160

          k =-0.5021 0.0163 1.2223 (  2335 PWs)   bands (ev):

   -10.9019 -10.9013  -8.3749  -8.3742  -7.2239  -7.2234  -4.8080  -4.8074
    -2.8642  -2.8639  -0.9023  -0.9020   1.7292   1.7361   3.7161   3.7219
     6.9832   6.9904   9.4448   9.4521

          k =-0.5077 0.5905-0.0002 (  2370 PWs)   bands (ev):

   -13.9344 -13.0144 -11.9903  -9.2839  -7.1927  -3.0281  -2.3607  -0.8690
    -0.8681  -0.6032  -0.0588   0.0655   0.9083   2.2540   2.4149   3.1610
     7.7064  10.7063  11.4543  12.2679

          k =-0.5082 0.5895 0.6108 (  2351 PWs)   bands (ev):

   -13.2322 -12.3179 -11.3082  -8.6587  -6.6754  -3.3182  -3.2729  -2.0838
    -1.8093  -1.5127  -0.3350   0.0204   0.1945   0.7395   1.0515   3.9674
     7.1982  10.5863  11.5759  12.2663

          k =-0.5086 0.5884 1.2218 (  2340 PWs)   bands (ev):

   -11.1667 -10.2808  -9.3496  -8.0471  -6.7976  -6.6200  -5.9081  -4.3447
    -3.6940  -1.7521  -1.4655  -0.7057   0.9136   2.2960   2.7356   4.2550
     6.7557   7.7489   8.4464  10.4650

          k =-0.5068 0.5926-1.2221 (  2346 PWs)   bands (ev):

   -11.1660 -10.2802  -9.3501  -8.0479  -6.7982  -6.6204  -5.9075  -4.3452
    -3.6935  -1.7518  -1.4657  -0.7054   0.9073   2.2892   2.7410   4.2617
     6.7604   7.7575   8.4385  10.4593

          k =-0.5072 0.5916-0.6111 (  2351 PWs)   bands (ev):

   -13.2319 -12.3175 -11.3085  -8.6590  -6.6756  -3.3186  -3.2731  -2.0834
    -1.8096  -1.5162  -0.3349   0.0204   0.1904   0.7425   1.0516   3.9701
     7.2027  10.5908  11.5887  12.2626

     the Fermi energy is     4.8675 ev

!    total energy              =     -91.15881286 Ry
     Harris-Foulkes estimate   =     -91.15881287 Ry
     estimated scf accuracy    <          1.3E-09 Ry

     The total energy is the sum of the following terms:

     one-electron contribution =     -46.89725202 Ry
     hartree contribution      =      37.38367729 Ry
     xc contribution           =     -27.96315330 Ry
     ewald contribution        =     -53.68255589 Ry
     smearing contrib. (-TS)   =       0.00047105 Ry

     convergence has been achieved in   6 iterations

     Forces acting on atoms (cartesian axes, Ry/au):

     atom    1 type  1   force =     0.00086962   -0.00066918    0.00034162
     atom    2 type  1   force =    -0.00072903    0.00079742    0.00034112
     atom    3 type  1   force =    -0.00090071    0.00056709   -0.00009133
     atom    4 type  1   force =     0.00075352   -0.00084451   -0.00014255
     atom    5 type  1   force =    -0.00077551    0.00093782   -0.00023680
     atom    6 type  1   force =     0.00089661   -0.00062226   -0.00022860
     atom    7 type  1   force =     0.00076254   -0.00086788    0.00003145
     atom    8 type  1   force =    -0.00087705    0.00070151   -0.00001491

     Total force =     0.003229     Total SCF correction =     0.000021


     Computing stress (Cartesian axis) and pressure

          total   stress  (Ry/bohr**3)                   (kbar)     P=       -0.24
  -0.00003214   0.00001028  -0.00000020           -4.73        1.51       -0.03
   0.00001028  -0.00001534  -0.00000025            1.51       -2.26       -0.04
  -0.00000020  -0.00000025   0.00004262           -0.03       -0.04        6.27


     number of scf cycles    =   3
     number of bfgs steps    =   1

     enthalpy old            =     -91.1574924267 Ry
     enthalpy new            =     -91.1587753663 Ry

     CASE: enthalpy_new < enthalpy_old

     new trust radius        =       0.0050734848 bohr
     new conv_thr            =            1.0E-10 Ry

     new unit-cell volume =    551.54470 a.u.^3 (    81.73049 Ang^3 )
     density =      1.95046 g/cm^3

CELL_PARAMETERS (bohr)
  14.218684756   0.166874038   0.011079744
   0.306706903   8.306295205   0.014531189
   0.003842149   0.004587878   4.672003672

ATOMIC_POSITIONS (crystal)
C             0.3753057723        0.4574516390        0.5953698941
C             0.4589024802        0.3737778150        0.0953558155
C             0.2089344346        0.6238736212        0.5956786574
C             0.1252886501        0.7073839618        0.0957390353
C             0.9588010029        0.8734552233        1.0958712044
C             0.8751749434        0.9570230075        0.5958586201
C             0.6252572198        0.2072937947        0.0955717997
C             0.7088374967        0.1235719374        0.5956319735



     Writing output data file ./pp.save/
     NEW-OLD atomic charge density approx. for the potential
     extrapolated charge   31.99555, renormalised to   32.00000

     total cpu time spent up to now is       21.4 secs

     Self-consistent Calculation

     iteration #  1     ecut=    40.00 Ry     beta= 0.50
     Davidson diagonalization with overlap
     ethr =  1.00E-06,  avg # of iterations =  2.0

     Threshold (ethr) on eigenvalues was too large:
     Diagonalizing with lowered threshold

     Davidson diagonalization with overlap
     ethr =  3.23E-09,  avg # of iterations =  3.9

     total cpu time spent up to now is       23.8 secs

     total energy              =     -91.15883615 Ry
     Harris-Foulkes estimate   =     -91.16415716 Ry
     estimated scf accuracy    <       0.00000102 Ry

     iteration #  2     ecut=    40.00 Ry     beta= 0.50
     Davidson diagonalization with overlap
     ethr =  3.18E-09,  avg # of iterations =  2.0

     total cpu time spent up to now is       24.9 secs

     total energy              =     -91.15883666 Ry
     Harris-Foulkes estimate   =     -91.15883675 Ry
     estimated scf accuracy    <       0.00000036 Ry

     iteration #  3     ecut=    40.00 Ry     beta= 0.50
     Davidson diagonalization with overlap
     ethr =  1.11E-09,  avg # of iterations =  1.4

     total cpu time spent up to now is       25.8 secs

     total energy              =     -91.15883668 Ry
     Harris-Foulkes estimate   =     -91.15883668 Ry
     estimated scf accuracy    <       0.00000007 Ry

     iteration #  4     ecut=    40.00 Ry     beta= 0.50
     Davidson diagonalization with overlap
     ethr =  2.11E-10,  avg # of iterations =  2.0

     total cpu time spent up to now is       26.9 secs

     total energy              =     -91.15883669 Ry
     Harris-Foulkes estimate   =     -91.15883669 Ry
     estimated scf accuracy    <          8.0E-09 Ry

     iteration #  5     ecut=    40.00 Ry     beta= 0.50
     Davidson diagonalization with overlap
     ethr =  2.50E-11,  avg # of iterations =  2.0

     total cpu time spent up to now is       28.0 secs

     total energy              =     -91.15883669 Ry
     Harris-Foulkes estimate   =     -91.15883669 Ry
     estimated scf accuracy    <          1.5E-09 Ry

     iteration #  6     ecut=    40.00 Ry     beta= 0.50
     Davidson diagonalization with overlap
     ethr =  4.65E-12,  avg # of iterations =  2.0

     total cpu time spent up to now is       29.2 secs

     total energy              =     -91.15883669 Ry
     Harris-Foulkes estimate   =     -91.15883669 Ry
     estimated scf accuracy    <          1.8E-10 Ry

     iteration #  7     ecut=    40.00 Ry     beta= 0.50
     Davidson diagonalization with overlap
     ethr =  5.71E-13,  avg # of iterations =  2.0

     total cpu time spent up to now is       30.5 secs

     End of self-consistent calculation

          k = 0.0000 0.0000 0.0000 (  2375 PWs)   bands (ev):

   -14.0482 -12.5370 -12.5369  -8.6933  -7.7228  -1.9133  -1.9133  -1.6411
    -0.9483  -0.3600  -0.3594   0.4427   0.4427   2.4409   2.4924   2.9198
     6.8011   8.9178  12.2518  12.2558

          k =-0.0005-0.0011 0.6103 (  2364 PWs)   bands (ev):

   -13.3434 -11.8485 -11.8480  -8.0903  -7.1810  -3.3649  -2.6835  -2.6828
    -1.0702  -1.0700  -0.8241   0.2319   0.4335   0.4385   1.0179   3.7825
     6.5893   9.8209  11.4494  11.4559

          k =-0.0009-0.0021 1.2206 (  2354 PWs)   bands (ev):

   -11.2704  -9.8470  -9.8461  -8.1000  -6.3986  -6.3978  -6.2947  -4.6565
    -3.3877  -1.9744  -0.9583  -0.9582   1.4973   2.4807   2.4892   4.6461
     6.3089   8.0851   8.0970  10.2317

          k =-0.0067 0.5724-0.0006 (  2352 PWs)   bands (ev):

   -13.8391 -13.3052 -11.4495 -10.0091  -6.2212  -4.1324  -1.9211  -1.7326
    -0.7776  -0.2932   0.1828   1.3021   1.3310   1.7991   2.1428   2.3196
     8.2814  10.6532  10.8428  12.2570

          k =-0.0072 0.5713 0.6097 (  2367 PWs)   bands (ev):

   -13.1381 -12.6103 -10.7748  -9.3657  -5.7912  -4.0612  -3.1379  -2.4128
    -1.5385  -1.0875  -0.8989  -0.4294   0.3411   1.0451   2.0477   3.0914
     7.8553   9.6874  11.6755  13.1182

          k =-0.0076 0.5703 1.2200 (  2354 PWs)   bands (ev):

   -11.0766 -10.5730  -8.8850  -8.1145  -7.0653  -7.0394  -5.4193  -4.2272
    -3.6329  -2.1195  -1.2881  -0.6751   1.2732   1.4312   3.4776   4.1007
     6.7340   7.2334   9.2925   9.9987

          k =-0.0058 0.5745-1.2212 (  2354 PWs)   bands (ev):

   -11.0758 -10.5729  -8.8850  -8.1155  -7.0653  -7.0401  -5.4193  -4.2266
    -3.6334  -2.1195  -1.2878  -0.6751   1.2640   1.4311   3.4774   4.1096
     6.7424   7.2334   9.2934   9.9900

          k =-0.0063 0.5734-0.6109 (  2362 PWs)   bands (ev):

   -13.1376 -12.6103 -10.7748  -9.3661  -5.7915  -4.0612  -3.1384  -2.4129
    -1.5383  -1.0928  -0.8990  -0.4288   0.3412   1.0454   2.0475   3.0957
     7.8610   9.6875  11.6984  13.1185

          k =-0.5016 0.0185 0.0004 (  2376 PWs)   bands (ev):

   -13.6657 -13.6656 -10.7202 -10.7201  -5.1747  -5.1746  -1.3445  -1.3433
    -0.5805  -0.5803   1.0728   1.0730   1.3867   1.3872   1.7740   1.7743
     9.0905   9.0915   9.8240   9.8262

          k =-0.5020 0.0175 0.6107 (  2358 PWs)   bands (ev):

   -12.9646 -12.9642 -10.0615 -10.0612  -4.8890  -4.8888  -2.8595  -2.8592
    -0.9579  -0.9574  -0.5339  -0.5298   0.8095   0.8097   2.1641   2.1673
     8.6658   8.6701  10.7050  10.7183

          k =-0.5025 0.0164 1.2210 (  2335 PWs)   bands (ev):

   -10.9051 -10.9045  -8.3776  -8.3770  -7.2268  -7.2262  -4.8102  -4.8096
    -2.8506  -2.8503  -0.8898  -0.8894   1.7269   1.7338   3.7148   3.7207
     6.9809   6.9880   9.4402   9.4476

          k =-0.5083 0.5909-0.0002 (  2370 PWs)   bands (ev):

   -13.9315 -13.0095 -11.9832  -9.2694  -7.1805  -3.0075  -2.3586  -0.8960
    -0.8458  -0.5980  -0.0526   0.0401   0.8848   2.2763   2.3948   3.1723
     7.7180  10.7121  11.4672  12.2737

          k =-0.5087 0.5898 0.6101 (  2351 PWs)   bands (ev):

   -13.2310 -12.3147 -11.3028  -8.6461  -6.6663  -3.3187  -3.2907  -2.0923
    -1.8073  -1.5123  -0.3217   0.0113   0.1978   0.7438   1.0637   3.9766
     7.2015  10.5884  11.5796  12.2627

          k =-0.5092 0.5888 1.2204 (  2340 PWs)   bands (ev):

   -11.1704 -10.2827  -9.3500  -8.0580  -6.8043  -6.6109  -5.9132  -4.3360
    -3.6926  -1.7445  -1.4489  -0.6892   0.9095   2.2945   2.7345   4.2487
     6.7598   7.7443   8.4408  10.4633

          k =-0.5073 0.5930-1.2208 (  2346 PWs)   bands (ev):

   -11.1698 -10.2821  -9.3506  -8.0587  -6.8049  -6.6113  -5.9126  -4.3365
    -3.6922  -1.7442  -1.4491  -0.6890   0.9033   2.2877   2.7398   4.2553
     6.7644   7.7528   8.4328  10.4576

          k =-0.5078 0.5919-0.6105 (  2351 PWs)   bands (ev):

   -13.2306 -12.3143 -11.3031  -8.6464  -6.6666  -3.3191  -3.2909  -2.0919
    -1.8077  -1.5158  -0.3217   0.0113   0.1938   0.7468   1.0638   3.9793
     7.2061  10.5930  11.5925  12.2591

     the Fermi energy is     4.8631 ev

!    total energy              =     -91.15883669 Ry
     Harris-Foulkes estimate   =     -91.15883669 Ry
     estimated scf accuracy    <          4.1E-12 Ry

     The total energy is the sum of the following terms:

     one-electron contribution =     -46.83944616 Ry
     hartree contribution      =      37.35642908 Ry
     xc contribution           =     -27.96204991 Ry
     ewald contribution        =     -53.71423915 Ry
     smearing contrib. (-TS)   =       0.00046945 Ry

     convergence has been achieved in   7 iterations

     Forces acting on atoms (cartesian axes, Ry/au):

     atom    1 type  1   force =    -0.00021129    0.00011122    0.00024848
     atom    2 type  1   force =     0.00030960   -0.00002145    0.00027738
     atom    3 type  1   force =     0.00020057   -0.00020895   -0.00004779
     atom    4 type  1   force =    -0.00034954    0.00000449   -0.00011965
     atom    5 type  1   force =     0.00037389    0.00003264   -0.00020139
     atom    6 type  1   force =    -0.00026900    0.00023246   -0.00018571
     atom    7 type  1   force =    -0.00032318   -0.00000256    0.00004926
     atom    8 type  1   force =     0.00026895   -0.00014785   -0.00002057

     Total force =     0.001029     Total SCF correction =     0.000002


     Computing stress (Cartesian axis) and pressure

          total   stress  (Ry/bohr**3)                   (kbar)     P=       -0.70
  -0.00000036  -0.00000819  -0.00000018           -0.05       -1.20       -0.03
  -0.00000819  -0.00000424  -0.00000035           -1.20       -0.62       -0.05
  -0.00000018  -0.00000035  -0.00000967           -0.03       -0.05       -1.42


     number of scf cycles    =   4
     number of bfgs steps    =   2

     enthalpy old            =     -91.1587753663 Ry
     enthalpy new            =     -91.1587991990 Ry

     CASE: enthalpy_new < enthalpy_old

     new trust radius        =       0.0009421011 bohr
     new conv_thr            =            1.0E-10 Ry

     new unit-cell volume =    551.37002 a.u.^3 (    81.70461 Ang^3 )
     density =      1.95107 g/cm^3

CELL_PARAMETERS (bohr)
  14.218146475   0.164439010   0.011020165
   0.305286711   8.305361141   0.014463200
   0.003822877   0.004550900   4.671187545

ATOMIC_POSITIONS (crystal)
C             0.3752972275        0.4574581578        0.5954189774
C             0.4589171211        0.3737810469        0.0954103082
C             0.2089424561        0.6238564679        0.5956690591
C             0.1252716786        0.7073787926        0.0957155938
C             0.9588193303        0.8734646784        1.0958316840
C             0.8751627162        0.9570424607        0.5958220649
C             0.6252418743        0.2072877344        0.0955812527
C             0.7088495958        0.1235616613        0.5956280599



     Writing output data file ./pp.save/
     NEW-OLD atomic charge density approx. for the potential
     extrapolated charge   31.98986, renormalised to   32.00000

     total cpu time spent up to now is       30.6 secs

     Self-consistent Calculation

     iteration #  1     ecut=    40.00 Ry     beta= 0.50
     Davidson diagonalization with overlap
     ethr =  1.00E-06,  avg # of iterations =  2.0

     Threshold (ethr) on eigenvalues was too large:
     Diagonalizing with lowered threshold

     Davidson diagonalization with overlap
     ethr =  4.60E-09,  avg # of iterations =  1.7

     total cpu time spent up to now is       32.9 secs

     total energy              =     -91.15883648 Ry
     Harris-Foulkes estimate   =     -91.17095917 Ry
     estimated scf accuracy    <       0.00000150 Ry

     iteration #  2     ecut=    40.00 Ry     beta= 0.50
     Davidson diagonalization with overlap
     ethr =  4.68E-09,  avg # of iterations =  3.0

     total cpu time spent up to now is       34.7 secs

     total energy              =     -91.15883953 Ry
     Harris-Foulkes estimate   =     -91.15883985 Ry
     estimated scf accuracy    <       0.00000094 Ry

     iteration #  3     ecut=    40.00 Ry     beta= 0.50
     Davidson diagonalization with overlap
     ethr =  2.93E-09,  avg # of iterations =  1.0

     total cpu time spent up to now is       35.7 secs

     total energy              =     -91.15883935 Ry
     Harris-Foulkes estimate   =     -91.15883957 Ry
     estimated scf accuracy    <       0.00000033 Ry

     iteration #  4     ecut=    40.00 Ry     beta= 0.50
     Davidson diagonalization with overlap
     ethr =  1.02E-09,  avg # of iterations =  2.0

     total cpu time spent up to now is       37.2 secs

     total energy              =     -91.15883943 Ry
     Harris-Foulkes estimate   =     -91.15883943 Ry
     estimated scf accuracy    <       0.00000001 Ry

     iteration #  5     ecut=    40.00 Ry     beta= 0.50
     Davidson diagonalization with overlap
     ethr =  3.79E-11,  avg # of iterations =  1.4

     total cpu time spent up to now is       38.4 secs

     total energy              =     -91.15883942 Ry
     Harris-Foulkes estimate   =     -91.15883943 Ry
     estimated scf accuracy    <          4.4E-09 Ry

     iteration #  6     ecut=    40.00 Ry     beta= 0.50
     Davidson diagonalization with overlap
     ethr =  1.39E-11,  avg # of iterations =  1.0

     total cpu time spent up to now is       39.5 secs

     total energy              =     -91.15883942 Ry
     Harris-Foulkes estimate   =     -91.15883942 Ry
     estimated scf accuracy    <          1.4E-09 Ry

     iteration #  7     ecut=    40.00 Ry     beta= 0.50
     Davidson diagonalization with overlap
     ethr =  4.41E-12,  avg # of iterations =  2.0

     total cpu time spent up to now is       41.1 secs

     total energy              =     -91.15883942 Ry
     Harris-Foulkes estimate   =     -91.15883942 Ry
     estimated scf accuracy    <          2.0E-10 Ry

     iteration #  8     ecut=    40.00 Ry     beta= 0.50
     Davidson diagonalization with overlap
     ethr =  6.18E-13,  avg # of iterations =  2.0

     total cpu time spent up to now is       42.7 secs

     End of self-consistent calculation

          k = 0.0000 0.0000 0.0000 (  2375 PWs)   bands (ev):

   -14.0461 -12.5351 -12.5351  -8.6927  -7.7214  -1.9134  -1.9133  -1.6382
    -0.9413  -0.3579  -0.3575   0.4494   0.4494   2.4407   2.4989   2.9211
     6.8018   8.9215  12.2568  12.2601

          k =-0.0005-0.0010 0.6104 (  2364 PWs)   bands (ev):

   -13.3411 -11.8464 -11.8459  -8.0894  -7.1791  -3.3594  -2.6796  -2.6790
    -1.0684  -1.0682  -0.8209   0.2370   0.4358   0.4407   1.0190   3.7841
     6.5912   9.8249  11.4532  11.4597

          k =-0.0009-0.0021 1.2208 (  2354 PWs)   bands (ev):

   -11.2672  -9.8440  -9.8432  -8.0956  -6.3948  -6.3940  -6.2929  -4.6549
    -3.3845  -1.9726  -0.9577  -0.9575   1.5011   2.4838   2.4922   4.6501
     6.3114   8.0892   8.1011  10.2355

          k =-0.0066 0.5724-0.0006 (  2352 PWs)   bands (ev):

   -13.8370 -13.3031 -11.4480 -10.0079  -6.2205  -4.1322  -1.9188  -1.7310
    -0.7707  -0.2864   0.1826   1.3047   1.3376   1.7990   2.1494   2.3215
     8.2827  10.6555  10.8475  12.2600

          k =-0.0071 0.5714 0.6099 (  2367 PWs)   bands (ev):

   -13.1357 -12.6079 -10.7730  -9.3642  -5.7898  -4.0592  -3.1326  -2.4088
    -1.5340  -1.0850  -0.8970  -0.4248   0.3422   1.0464   2.0505   3.0937
     7.8579   9.6909  11.6805  13.1228

          k =-0.0075 0.5703 1.2203 (  2354 PWs)   bands (ev):

   -11.0735 -10.5698  -8.8821  -8.1105  -7.0615  -7.0370  -5.4158  -4.2239
    -3.6317  -2.1187  -1.2866  -0.6742   1.2765   1.4339   3.4810   4.1042
     6.7375   7.2374   9.2972  10.0030

          k =-0.0057 0.5745-1.2214 (  2354 PWs)   bands (ev):

   -11.0726 -10.5698  -8.8821  -8.1115  -7.0615  -7.0377  -5.4158  -4.2233
    -3.6321  -2.1187  -1.2863  -0.6741   1.2673   1.4339   3.4808   4.1131
     6.7459   7.2375   9.2980   9.9943

          k =-0.0062 0.5735-0.6110 (  2362 PWs)   bands (ev):

   -13.1352 -12.6079 -10.7730  -9.3646  -5.7902  -4.0591  -3.1331  -2.4089
    -1.5338  -1.0902  -0.8971  -0.4243   0.3423   1.0466   2.0504   3.0980
     7.8636   9.6910  11.7033  13.1231

          k =-0.5016 0.0184 0.0004 (  2376 PWs)   bands (ev):

   -13.6636 -13.6636 -10.7187 -10.7186  -5.1742  -5.1741  -1.3418  -1.3407
    -0.5737  -0.5735   1.0726   1.0728   1.3880   1.3886   1.7806   1.7809
     9.0918   9.0927   9.8281   9.8302

          k =-0.5020 0.0174 0.6108 (  2358 PWs)   bands (ev):

   -12.9623 -12.9619 -10.0598 -10.0594  -4.8874  -4.8873  -2.8547  -2.8544
    -0.9533  -0.9529  -0.5310  -0.5269   0.8106   0.8108   2.1658   2.1690
     8.6684   8.6727  10.7093  10.7225

          k =-0.5025 0.0163 1.2212 (  2335 PWs)   bands (ev):

   -10.9020 -10.9014  -8.3743  -8.3737  -7.2235  -7.2229  -4.8068  -4.8062
    -2.8495  -2.8493  -0.8886  -0.8882   1.7305   1.7374   3.7179   3.7237
     6.9847   6.9918   9.4442   9.4515

          k =-0.5082 0.5909-0.0002 (  2370 PWs)   bands (ev):

   -13.9292 -13.0077 -11.9815  -9.2685  -7.1795  -3.0073  -2.3568  -0.8891
    -0.8459  -0.5954  -0.0509   0.0468   0.8914   2.2761   2.4013   3.1744
     7.7199  10.7155  11.4688  12.2797

          k =-0.5086 0.5898 0.6102 (  2351 PWs)   bands (ev):

   -13.2285 -12.3125 -11.3008  -8.6449  -6.6649  -3.3156  -3.2852  -2.0880
    -1.8045  -1.5101  -0.3204   0.0160   0.2007   0.7458   1.0649   3.9790
     7.2044  10.5918  11.5836  12.2667

          k =-0.5091 0.5888 1.2207 (  2340 PWs)   bands (ev):

   -11.1671 -10.2798  -9.3471  -8.0536  -6.8005  -6.6091  -5.9095  -4.3346
    -3.6895  -1.7428  -1.4482  -0.6885   0.9125   2.2980   2.7374   4.2524
     6.7631   7.7487   8.4450  10.4676

          k =-0.5073 0.5930-1.2210 (  2346 PWs)   bands (ev):

   -11.1665 -10.2791  -9.3476  -8.0544  -6.8012  -6.6094  -5.9089  -4.3351
    -3.6891  -1.7425  -1.4484  -0.6883   0.9063   2.2913   2.7428   4.2589
     6.7677   7.7572   8.4371  10.4619

          k =-0.5077 0.5919-0.6106 (  2351 PWs)   bands (ev):

   -13.2281 -12.3122 -11.3011  -8.6451  -6.6651  -3.3160  -3.2854  -2.0876
    -1.8048  -1.5136  -0.3204   0.0161   0.1967   0.7488   1.0651   3.9817
     7.2090  10.5963  11.5963  12.2631

     the Fermi energy is     4.8673 ev

!    total energy              =     -91.15883942 Ry
     Harris-Foulkes estimate   =     -91.15883942 Ry
     estimated scf accuracy    <          2.9E-12 Ry

     The total energy is the sum of the following terms:

     one-electron contribution =     -46.80007442 Ry
     hartree contribution      =      37.34036563 Ry
     xc contribution           =     -27.96276107 Ry
     ewald contribution        =     -53.73683761 Ry
     smearing contrib. (-TS)   =       0.00046805 Ry

     convergence has been achieved in   8 iterations

     Forces acting on atoms (cartesian axes, Ry/au):

     atom    1 type  1   force =    -0.00003783    0.00003983    0.00021387
     atom    2 type  1   force =     0.00009263    0.00003007    0.00020939
     atom    3 type  1   force =    -0.00000670   -0.00011186   -0.00005035
     atom    4 type  1   force =    -0.00007683   -0.00008336   -0.00007815
     atom    5 type  1   force =     0.00006400    0.00013081   -0.00016972
     atom    6 type  1   force =     0.00005059    0.00008596   -0.00016064
     atom    7 type  1   force =    -0.00007471   -0.00006755    0.00003579
     atom    8 type  1   force =    -0.00001113   -0.00002390   -0.00000017

     Total force =     0.000484     Total SCF correction =     0.000001


     Computing stress (Cartesian axis) and pressure

          total   stress  (Ry/bohr**3)                   (kbar)     P=       -0.42
  -0.00000271  -0.00000678  -0.00000020           -0.40       -1.00       -0.03
  -0.00000678  -0.00000498  -0.00000032           -1.00       -0.73       -0.05
  -0.00000020  -0.00000032  -0.00000080           -0.03       -0.05       -0.12


     number of scf cycles    =   5
     number of bfgs steps    =   3

     enthalpy old            =     -91.1587991990 Ry
     enthalpy new            =     -91.1588019429 Ry

     CASE: enthalpy_new < enthalpy_old

     new trust radius        =       0.0010363634 bohr
     new conv_thr            =            1.0E-10 Ry

     new unit-cell volume =    551.22041 a.u.^3 (    81.68244 Ang^3 )
     density =      1.95160 g/cm^3

CELL_PARAMETERS (bohr)
  14.216954670   0.161948958   0.010946390
   0.303823600   8.304178159   0.014390158
   0.003798386   0.004510143   4.670937666

ATOMIC_POSITIONS (crystal)
C             0.3752931090        0.4574624387        0.5954708597
C             0.4589262678        0.3737864885        0.0954635458
C             0.2089443162        0.6238419718        0.5956575523
C             0.1252625312        0.7073680828        0.0956944945
C             0.9588282657        0.8734812109        1.0957904263
C             0.8751614065        0.9570555254        0.5957833477
C             0.6252334316        0.2072779030        0.0955903091
C             0.7088526722        0.1235573789        0.5956264647



     Writing output data file ./pp.save/
     NEW-OLD atomic charge density approx. for the potential
     extrapolated charge   31.99131, renormalised to   32.00000

     total cpu time spent up to now is       42.8 secs

     Self-consistent Calculation

     iteration #  1     ecut=    40.00 Ry     beta= 0.50
     Davidson diagonalization with overlap
     ethr =  1.00E-06,  avg # of iterations =  2.0

     Threshold (ethr) on eigenvalues was too large:
     Diagonalizing with lowered threshold

     Davidson diagonalization with overlap
     ethr =  2.89E-09,  avg # of iterations =  2.2

     total cpu time spent up to now is       45.9 secs

     total energy              =     -91.15883931 Ry
     Harris-Foulkes estimate   =     -91.16921312 Ry
     estimated scf accuracy    <       0.00000095 Ry

     iteration #  2     ecut=    40.00 Ry     beta= 0.50
     Davidson diagonalization with overlap
     ethr =  2.96E-09,  avg # of iterations =  3.0

     total cpu time spent up to now is       48.1 secs

     total energy              =     -91.15884147 Ry
     Harris-Foulkes estimate   =     -91.15884171 Ry
     estimated scf accuracy    <       0.00000073 Ry

     iteration #  3     ecut=    40.00 Ry     beta= 0.50
     Davidson diagonalization with overlap
     ethr =  2.29E-09,  avg # of iterations =  1.0

     total cpu time spent up to now is       49.4 secs

     total energy              =     -91.15884131 Ry
     Harris-Foulkes estimate   =     -91.15884149 Ry
     estimated scf accuracy    <       0.00000027 Ry

     iteration #  4     ecut=    40.00 Ry     beta= 0.50
     Davidson diagonalization with overlap
     ethr =  8.46E-10,  avg # of iterations =  2.0

     total cpu time spent up to now is       51.3 secs

     total energy              =     -91.15884137 Ry
     Harris-Foulkes estimate   =     -91.15884138 Ry
     estimated scf accuracy    <       0.00000001 Ry

     iteration #  5     ecut=    40.00 Ry     beta= 0.50
     Davidson diagonalization with overlap
     ethr =  4.52E-11,  avg # of iterations =  1.7

     total cpu time spent up to now is       52.8 secs

     total energy              =     -91.15884137 Ry
     Harris-Foulkes estimate   =     -91.15884137 Ry
     estimated scf accuracy    <          3.3E-09 Ry

     iteration #  6     ecut=    40.00 Ry     beta= 0.50
     Davidson diagonalization with overlap
     ethr =  1.04E-11,  avg # of iterations =  1.1

     total cpu time spent up to now is       54.2 secs

     total energy              =     -91.15884137 Ry
     Harris-Foulkes estimate   =     -91.15884137 Ry
     estimated scf accuracy    <          1.0E-09 Ry

     iteration #  7     ecut=    40.00 Ry     beta= 0.50
     Davidson diagonalization with overlap
     ethr =  3.25E-12,  avg # of iterations =  2.0

     total cpu time spent up to now is       56.2 secs

     End of self-consistent calculation

          k = 0.0000 0.0000 0.0000 (  2375 PWs)   bands (ev):

   -14.0436 -12.5326 -12.5325  -8.6908  -7.7190  -1.9119  -1.9118  -1.6347
    -0.9370  -0.3555  -0.3552   0.4536   0.4536   2.4421   2.5029   2.9227
     6.8031   8.9253  12.2622  12.2648

          k =-0.0005-0.0010 0.6104 (  2364 PWs)   bands (ev):

   -13.3384 -11.8438 -11.8433  -8.0874  -7.1766  -3.3556  -2.6765  -2.6759
    -1.0661  -1.0659  -0.8174   0.2404   0.4382   0.4432   1.0209   3.7858
     6.5932   9.8287  11.4558  11.4623

          k =-0.0009-0.0021 1.2209 (  2354 PWs)   bands (ev):

   -11.2643  -9.8411  -9.8403  -8.0923  -6.3917  -6.3908  -6.2906  -4.6524
    -3.3818  -1.9702  -0.9558  -0.9557   1.5047   2.4865   2.4949   4.6534
     6.3135   8.0921   8.1040  10.2379

          k =-0.0065 0.5725-0.0005 (  2352 PWs)   bands (ev):

   -13.8343 -13.3003 -11.4457 -10.0057  -6.2185  -4.1305  -1.9161  -1.7290
    -0.7664  -0.2821   0.1840   1.3077   1.3417   1.8004   2.1534   2.3239
     8.2845  10.6579  10.8524  12.2632

          k =-0.0070 0.5715 0.6099 (  2367 PWs)   bands (ev):

   -13.1329 -12.6051 -10.7707  -9.3619  -5.7877  -4.0568  -3.1289  -2.4055
    -1.5307  -1.0822  -0.8949  -0.4215   0.3442   1.0484   2.0536   3.0962
     7.8602   9.6935  11.6855  13.1258

          k =-0.0074 0.5704 1.2203 (  2354 PWs)   bands (ev):

   -11.0704 -10.5668  -8.8794  -8.1073  -7.0582  -7.0344  -5.4128  -4.2211
    -3.6295  -2.1168  -1.2844  -0.6722   1.2794   1.4363   3.4840   4.1071
     6.7403   7.2403   9.3005  10.0059

          k =-0.0056 0.5746-1.2214 (  2354 PWs)   bands (ev):

   -11.0696 -10.5667  -8.8794  -8.1083  -7.0582  -7.0351  -5.4128  -4.2205
    -3.6300  -2.1168  -1.2841  -0.6722   1.2702   1.4362   3.4838   4.1160
     6.7486   7.2404   9.3014   9.9973

          k =-0.0061 0.5735-0.6110 (  2362 PWs)   bands (ev):

   -13.1324 -12.6051 -10.7706  -9.3623  -5.7880  -4.0568  -3.1294  -2.4056
    -1.5305  -1.0874  -0.8951  -0.4210   0.3443   1.0487   2.0535   3.1004
     7.8658   9.6936  11.7082  13.1262

          k =-0.5016 0.0184 0.0004 (  2376 PWs)   bands (ev):

   -13.6611 -13.6610 -10.7163 -10.7163  -5.1723  -5.1723  -1.3387  -1.3376
    -0.5693  -0.5693   1.0741   1.0741   1.3898   1.3904   1.7848   1.7848
     9.0935   9.0943   9.8324   9.8345

          k =-0.5021 0.0173 0.6108 (  2358 PWs)   bands (ev):

   -12.9596 -12.9593 -10.0573 -10.0570  -4.8851  -4.8851  -2.8512  -2.8508
    -0.9500  -0.9496  -0.5278  -0.5238   0.8126   0.8127   2.1677   2.1709
     8.6707   8.6749  10.7136  10.7268

          k =-0.5025 0.0163 1.2213 (  2335 PWs)   bands (ev):

   -10.8991 -10.8985  -8.3713  -8.3707  -7.2205  -7.2199  -4.8038  -4.8032
    -2.8474  -2.8472  -0.8865  -0.8861   1.7338   1.7406   3.7205   3.7263
     6.9875   6.9946   9.4467   9.4540

          k =-0.5081 0.5909-0.0002 (  2370 PWs)   bands (ev):

   -13.9264 -13.0052 -11.9790  -9.2665  -7.1775  -3.0057  -2.3546  -0.8847
    -0.8445  -0.5923  -0.0489   0.0510   0.8956   2.2775   2.4052   3.1770
     7.7223  10.7191  11.4704  12.2862

          k =-0.5086 0.5898 0.6103 (  2351 PWs)   bands (ev):

   -13.2256 -12.3099 -11.2982  -8.6428  -6.6627  -3.3129  -3.2813  -2.0848
    -1.8018  -1.5079  -0.3184   0.0193   0.2039   0.7479   1.0669   3.9817
     7.2071  10.5943  11.5874  12.2693

          k =-0.5090 0.5888 1.2207 (  2340 PWs)   bands (ev):

   -11.1640 -10.2769  -9.3442  -8.0502  -6.7974  -6.6067  -5.9064  -4.3323
    -3.6868  -1.7405  -1.4463  -0.6866   0.9150   2.3012   2.7399   4.2551
     6.7659   7.7520   8.4479  10.4706

          k =-0.5072 0.5929-1.2210 (  2346 PWs)   bands (ev):

   -11.1634 -10.2763  -9.3447  -8.0510  -6.7980  -6.6071  -5.9058  -4.3328
    -3.6863  -1.7402  -1.4465  -0.6864   0.9088   2.2945   2.7453   4.2617
     6.7706   7.7605   8.4400  10.4650

          k =-0.5077 0.5919-0.6106 (  2351 PWs)   bands (ev):

   -13.2252 -12.3096 -11.2985  -8.6431  -6.6629  -3.3132  -3.2816  -2.0844
    -1.8021  -1.5114  -0.3183   0.0194   0.1999   0.7509   1.0670   3.9844
     7.2116  10.5988  11.6001  12.2657

     the Fermi energy is     4.8708 ev

!    total energy              =     -91.15884137 Ry
     Harris-Foulkes estimate   =     -91.15884137 Ry
     estimated scf accuracy    <          8.8E-11 Ry

     The total energy is the sum of the following terms:

     one-electron contribution =     -46.74920156 Ry
     hartree contribution      =      37.31804743 Ry
     xc contribution           =     -27.96276513 Ry
     ewald contribution        =     -53.76538844 Ry
     smearing contrib. (-TS)   =       0.00046632 Ry

     convergence has been achieved in   7 iterations

     Forces acting on atoms (cartesian axes, Ry/au):

     atom    1 type  1   force =     0.00006997   -0.00000966    0.00015711
     atom    2 type  1   force =    -0.00004272    0.00005052    0.00015953
     atom    3 type  1   force =    -0.00010972   -0.00005938   -0.00003010
     atom    4 type  1   force =     0.00002796   -0.00008894   -0.00005857
     atom    5 type  1   force =    -0.00001996    0.00011498   -0.00013513
     atom    6 type  1   force =     0.00012332    0.00006372   -0.00013055
     atom    7 type  1   force =     0.00003679   -0.00007069    0.00003191
     atom    8 type  1   force =    -0.00008566   -0.00000055    0.00000581

     Total force =     0.000414     Total SCF correction =     0.000003


     Computing stress (Cartesian axis) and pressure

          total   stress  (Ry/bohr**3)                   (kbar)     P=       -0.43
  -0.00000468  -0.00000564  -0.00000019           -0.69       -0.83       -0.03
  -0.00000564  -0.00000564  -0.00000032           -0.83       -0.83       -0.05
  -0.00000019  -0.00000032   0.00000156           -0.03       -0.05        0.23


     number of scf cycles    =   6
     number of bfgs steps    =   4

     enthalpy old            =     -91.1588019429 Ry
     enthalpy new            =     -91.1588039018 Ry

     CASE: enthalpy_new < enthalpy_old

     new trust radius        =       0.0015547557 bohr
     new conv_thr            =            1.0E-10 Ry

     new unit-cell volume =    550.97527 a.u.^3 (    81.64611 Ang^3 )
     density =      1.95247 g/cm^3

CELL_PARAMETERS (bohr)
  14.214527103   0.158449713   0.010839035
   0.301754803   8.302244680   0.014276335
   0.003762543   0.004446346   4.670690739

ATOMIC_POSITIONS (crystal)
C             0.3752921768        0.4574648167        0.5955394188
C             0.4589334641        0.3737959138        0.0955366398
C             0.2089424172        0.6238238071        0.5956443056
C             0.1252526174        0.7073529570        0.0956650720
C             0.9588397192        0.8735025085        1.0957334957
C             0.8751608985        0.9570759806        0.5957295363
C             0.6252253026        0.2072640664        0.0956038046
C             0.7088554042        0.1235509499        0.5956247273



     Writing output data file ./pp.save/
     NEW-OLD atomic charge density approx. for the potential
     extrapolated charge   31.98576, renormalised to   32.00000

     total cpu time spent up to now is       56.3 secs

     Self-consistent Calculation

     iteration #  1     ecut=    40.00 Ry     beta= 0.50
     Davidson diagonalization with overlap
     ethr =  1.00E-06,  avg # of iterations =  2.0

     Threshold (ethr) on eigenvalues was too large:
     Diagonalizing with lowered threshold

     Davidson diagonalization with overlap
     ethr =  8.03E-09,  avg # of iterations =  1.8

     total cpu time spent up to now is       59.9 secs

     total energy              =     -91.15883845 Ry
     Harris-Foulkes estimate   =     -91.17581512 Ry
     estimated scf accuracy    <       0.00000262 Ry

     iteration #  2     ecut=    40.00 Ry     beta= 0.50
     Davidson diagonalization with overlap
     ethr =  8.18E-09,  avg # of iterations =  3.0

     total cpu time spent up to now is       62.6 secs

     total energy              =     -91.15884429 Ry
     Harris-Foulkes estimate   =     -91.15884492 Ry
     estimated scf accuracy    <       0.00000193 Ry

     iteration #  3     ecut=    40.00 Ry     beta= 0.50
     Davidson diagonalization with overlap
     ethr =  6.03E-09,  avg # of iterations =  1.0

     total cpu time spent up to now is       64.1 secs

     total energy              =     -91.15884388 Ry
     Harris-Foulkes estimate   =     -91.15884435 Ry
     estimated scf accuracy    <       0.00000070 Ry

     iteration #  4     ecut=    40.00 Ry     beta= 0.50
     Davidson diagonalization with overlap
     ethr =  2.20E-09,  avg # of iterations =  2.0

     total cpu time spent up to now is       66.4 secs

     total energy              =     -91.15884404 Ry
     Harris-Foulkes estimate   =     -91.15884405 Ry
     estimated scf accuracy    <       0.00000004 Ry

     iteration #  5     ecut=    40.00 Ry     beta= 0.50
     Davidson diagonalization with overlap
     ethr =  1.24E-10,  avg # of iterations =  1.9

     total cpu time spent up to now is       68.4 secs

     total energy              =     -91.15884404 Ry
     Harris-Foulkes estimate   =     -91.15884404 Ry
     estimated scf accuracy    <          8.2E-09 Ry

     iteration #  6     ecut=    40.00 Ry     beta= 0.50
     Davidson diagonalization with overlap
     ethr =  2.57E-11,  avg # of iterations =  1.1

     total cpu time spent up to now is       70.0 secs

     total energy              =     -91.15884404 Ry
     Harris-Foulkes estimate   =     -91.15884404 Ry
     estimated scf accuracy    <          2.8E-09 Ry

     iteration #  7     ecut=    40.00 Ry     beta= 0.50
     Davidson diagonalization with overlap
     ethr =  8.66E-12,  avg # of iterations =  2.0

     total cpu time spent up to now is       72.4 secs

     total energy              =     -91.15884404 Ry
     Harris-Foulkes estimate   =     -91.15884404 Ry
     estimated scf accuracy    <          2.6E-10 Ry

     iteration #  8     ecut=    40.00 Ry     beta= 0.50
     Davidson diagonalization with overlap
     ethr =  8.19E-13,  avg # of iterations =  2.0

     total cpu time spent up to now is       74.8 secs

     End of self-consistent calculation

          k = 0.0000 0.0000 0.0000 (  2375 PWs)   bands (ev):

   -14.0397 -12.5286 -12.5286  -8.6871  -7.7151  -1.9085  -1.9085  -1.6294
    -0.9316  -0.3517  -0.3515   0.4590   0.4590   2.4455   2.5083   2.9258
     6.8060   8.9313  12.2708  12.2723

          k =-0.0005-0.0010 0.6105 (  2364 PWs)   bands (ev):

   -13.3344 -11.8397 -11.8393  -8.0836  -7.1726  -3.3506  -2.6719  -2.6714
    -1.0622  -1.0619  -0.8120   0.2454   0.4422   0.4470   1.0246   3.7890
     6.5967   9.8347  11.4603  11.4668

          k =-0.0009-0.0021 1.2209 (  2354 PWs)   bands (ev):

   -11.2600  -9.8368  -9.8360  -8.0876  -6.3871  -6.3863  -6.2866  -4.6484
    -3.3774  -1.9662  -0.9523  -0.9521   1.5101   2.4907   2.4990   4.6584
     6.3169   8.0966   8.1084  10.2418

          k =-0.0064 0.5726-0.0005 (  2352 PWs)   bands (ev):

   -13.8302 -13.2962 -11.4420 -10.0020  -6.2149  -4.1271  -1.9120  -1.7260
    -0.7609  -0.2766   0.1874   1.3128   1.3470   1.8037   2.1587   2.3280
     8.2880  10.6624  10.8603  12.2686

          k =-0.0068 0.5716 0.6099 (  2367 PWs)   bands (ev):

   -13.1288 -12.6009 -10.7668  -9.3581  -5.7838  -4.0528  -3.1239  -2.4009
    -1.5260  -1.0781  -0.8918  -0.4168   0.3479   1.0522   2.0587   3.1004
     7.8642   9.6980  11.6933  13.1309

          k =-0.0073 0.5706 1.2204 (  2354 PWs)   bands (ev):

   -11.0661 -10.5623  -8.8752  -8.1028  -7.0536  -7.0302  -5.4084  -4.2167
    -3.6257  -2.1132  -1.2806  -0.6686   1.2838   1.4398   3.4887   4.1116
     6.7448   7.2449   9.3059  10.0106

          k =-0.0055 0.5747-1.2215 (  2354 PWs)   bands (ev):

   -11.0652 -10.5623  -8.8752  -8.1037  -7.0536  -7.0310  -5.4085  -4.2161
    -3.6262  -2.1132  -1.2803  -0.6685   1.2747   1.4397   3.4885   4.1204
     6.7530   7.2449   9.3067  10.0021

          k =-0.0059 0.5737-0.6110 (  2362 PWs)   bands (ev):

   -13.1283 -12.6009 -10.7668  -9.3585  -5.7842  -4.0528  -3.1244  -2.4010
    -1.5258  -1.0832  -0.8919  -0.4162   0.3480   1.0524   2.0586   3.1046
     7.8698   9.6981  11.7158  13.1312

          k =-0.5017 0.0182 0.0004 (  2376 PWs)   bands (ev):

   -13.6572 -13.6570 -10.7125 -10.7123  -5.1688  -5.1687  -1.3339  -1.3329
    -0.5639  -0.5638   1.0772   1.0775   1.3929   1.3935   1.7900   1.7903
     9.0970   9.0977   9.8392   9.8412

          k =-0.5021 0.0172 0.6109 (  2358 PWs)   bands (ev):

   -12.9556 -12.9552 -10.0533 -10.0530  -4.8813  -4.8811  -2.8464  -2.8460
    -0.9452  -0.9448  -0.5230  -0.5190   0.8162   0.8165   2.1710   2.1741
     8.6748   8.6790  10.7204  10.7334

          k =-0.5026 0.0162 1.2213 (  2335 PWs)   bands (ev):

   -10.8948 -10.8942  -8.3669  -8.3663  -7.2161  -7.2156  -4.7993  -4.7987
    -2.8437  -2.8435  -0.8827  -0.8823   1.7387   1.7455   3.7246   3.7303
     6.9920   6.9990   9.4508   9.4580

          k =-0.5081 0.5909-0.0002 (  2370 PWs)   bands (ev):

   -13.9223 -13.0013 -11.9749  -9.2629  -7.1739  -3.0022  -2.3513  -0.8792
    -0.8412  -0.5873  -0.0455   0.0565   0.9010   2.2809   2.4106   3.1814
     7.7269  10.7250  11.4738  12.2963

          k =-0.5085 0.5898 0.6103 (  2351 PWs)   bands (ev):

   -13.2214 -12.3060 -11.2941  -8.6391  -6.6589  -3.3085  -3.2763  -2.0801
    -1.7976  -1.5045  -0.3146   0.0241   0.2089   0.7514   1.0706   3.9862
     7.2116  10.5986  11.5934  12.2737

          k =-0.5090 0.5888 1.2208 (  2340 PWs)   bands (ev):

   -11.1596 -10.2727  -9.3399  -8.0454  -6.7929  -6.6029  -5.9018  -4.3285
    -3.6825  -1.7367  -1.4427  -0.6830   0.9187   2.3062   2.7439   4.2594
     6.7707   7.7571   8.4523  10.4756

          k =-0.5072 0.5929-1.2211 (  2346 PWs)   bands (ev):

   -11.1589 -10.2721  -9.3404  -8.0462  -6.7935  -6.6032  -5.9012  -4.3290
    -3.6821  -1.7364  -1.4429  -0.6828   0.9125   2.2995   2.7492   4.2659
     6.7753   7.7655   8.4445  10.4700

          k =-0.5076 0.5919-0.6106 (  2351 PWs)   bands (ev):

   -13.2210 -12.3056 -11.2944  -8.6394  -6.6592  -3.3089  -3.2765  -2.0796
    -1.7979  -1.5079  -0.3146   0.0241   0.2049   0.7544   1.0708   3.9889
     7.2161  10.6031  11.6060  12.2701

     the Fermi energy is     4.8761 ev

!    total energy              =     -91.15884404 Ry
     Harris-Foulkes estimate   =     -91.15884404 Ry
     estimated scf accuracy    <          2.1E-12 Ry

     The total energy is the sum of the following terms:

     one-electron contribution =     -46.67225427 Ry
     hartree contribution      =      37.28472756 Ry
     xc contribution           =     -27.96300948 Ry
     ewald contribution        =     -53.80877151 Ry
     smearing contrib. (-TS)   =       0.00046367 Ry

     convergence has been achieved in   8 iterations

     Forces acting on atoms (cartesian axes, Ry/au):

     atom    1 type  1   force =     0.00009555   -0.00001928    0.00009588
     atom    2 type  1   force =    -0.00011336    0.00002627    0.00008078
     atom    3 type  1   force =    -0.00015718   -0.00002930   -0.00002008
     atom    4 type  1   force =     0.00013165   -0.00008715   -0.00001865
     atom    5 type  1   force =    -0.00014491    0.00011520   -0.00009037
     atom    6 type  1   force =     0.00024123    0.00000580   -0.00008674
     atom    7 type  1   force =     0.00012479   -0.00005344    0.00002397
     atom    8 type  1   force =    -0.00017777    0.00004189    0.00001520

     Total force =     0.000501     Total SCF correction =     0.000001


     Computing stress (Cartesian axis) and pressure

          total   stress  (Ry/bohr**3)                   (kbar)     P=       -0.34
  -0.00000548  -0.00000502  -0.00000021           -0.81       -0.74       -0.03
  -0.00000502  -0.00000568  -0.00000031           -0.74       -0.84       -0.05
  -0.00000021  -0.00000031   0.00000419           -0.03       -0.05        0.62


     number of scf cycles    =   7
     number of bfgs steps    =   5

     enthalpy old            =     -91.1588039018 Ry
     enthalpy new            =     -91.1588065826 Ry

     CASE: enthalpy_new < enthalpy_old

     new trust radius        =       0.0023326332 bohr
     new conv_thr            =            1.0E-10 Ry

     new unit-cell volume =    550.62410 a.u.^3 (    81.59407 Ang^3 )
     density =      1.95372 g/cm^3

CELL_PARAMETERS (bohr)
  14.210761366   0.153209660   0.010666001
   0.298654180   8.299338968   0.014106406
   0.003704695   0.004350907   4.670504777

ATOMIC_POSITIONS (crystal)
C             0.3752890174        0.4574702836        0.5956312238
C             0.4589430775        0.3738045075        0.0956309715
C             0.2089394221        0.6237969768        0.5956257804
C             0.1252419879        0.7073321942        0.0956290496
C             0.9588506971        0.8735335339        1.0956562103
C             0.8751662762        0.9571016757        0.5956571546
C             0.6252160285        0.2072473047        0.0956227671
C             0.7088554933        0.1235445235        0.5956238425



     Writing output data file ./pp.save/
     NEW-OLD atomic charge density approx. for the potential
     extrapolated charge   31.97959, renormalised to   32.00000

     total cpu time spent up to now is       74.9 secs

     Self-consistent Calculation

     iteration #  1     ecut=    40.00 Ry     beta= 0.50
     Davidson diagonalization with overlap
     ethr =  1.00E-06,  avg # of iterations =  2.0

     Threshold (ethr) on eigenvalues was too large:
     Diagonalizing with lowered threshold

     Davidson diagonalization with overlap
     ethr =  1.59E-08,  avg # of iterations =  1.6

     total cpu time spent up to now is       79.2 secs

     total energy              =     -91.15883644 Ry
     Harris-Foulkes estimate   =     -91.18310787 Ry
     estimated scf accuracy    <       0.00000518 Ry

     iteration #  2     ecut=    40.00 Ry     beta= 0.50
     Davidson diagonalization with overlap
     ethr =  1.62E-08,  avg # of iterations =  3.0

     total cpu time spent up to now is       82.4 secs

     total energy              =     -91.15884831 Ry
     Harris-Foulkes estimate   =     -91.15884960 Ry
     estimated scf accuracy    <       0.00000400 Ry

     iteration #  3     ecut=    40.00 Ry     beta= 0.50
     Davidson diagonalization with overlap
     ethr =  1.25E-08,  avg # of iterations =  1.0

     total cpu time spent up to now is       84.2 secs

     total energy              =     -91.15884744 Ry
     Harris-Foulkes estimate   =     -91.15884843 Ry
     estimated scf accuracy    <       0.00000148 Ry

     iteration #  4     ecut=    40.00 Ry     beta= 0.50
     Davidson diagonalization with overlap
     ethr =  4.63E-09,  avg # of iterations =  2.0

     total cpu time spent up to now is       86.8 secs

     total energy              =     -91.15884778 Ry
     Harris-Foulkes estimate   =     -91.15884782 Ry
     estimated scf accuracy    <       0.00000009 Ry

     iteration #  5     ecut=    40.00 Ry     beta= 0.50
     Davidson diagonalization with overlap
     ethr =  2.77E-10,  avg # of iterations =  2.0

     total cpu time spent up to now is       89.4 secs

     total energy              =     -91.15884778 Ry
     Harris-Foulkes estimate   =     -91.15884779 Ry
     estimated scf accuracy    <       0.00000002 Ry

     iteration #  6     ecut=    40.00 Ry     beta= 0.50
     Davidson diagonalization with overlap
     ethr =  4.90E-11,  avg # of iterations =  2.0

     total cpu time spent up to now is       92.1 secs

     total energy              =     -91.15884778 Ry
     Harris-Foulkes estimate   =     -91.15884778 Ry
     estimated scf accuracy    <          2.7E-09 Ry

     iteration #  7     ecut=    40.00 Ry     beta= 0.50
     Davidson diagonalization with overlap
     ethr =  8.49E-12,  avg # of iterations =  2.0

     total cpu time spent up to now is       94.8 secs

     total energy              =     -91.15884778 Ry
     Harris-Foulkes estimate   =     -91.15884778 Ry
     estimated scf accuracy    <          7.1E-10 Ry

     iteration #  8     ecut=    40.00 Ry     beta= 0.50
     Davidson diagonalization with overlap
     ethr =  2.21E-12,  avg # of iterations =  2.0

     total cpu time spent up to now is       97.7 secs

     End of self-consistent calculation

          k = 0.0000 0.0000 0.0000 (  2375 PWs)   bands (ev):

   -14.0337 -12.5225 -12.5225  -8.6813  -7.7090  -1.9031  -1.9031  -1.6214
    -0.9242  -0.3458  -0.3458   0.4663   0.4663   2.4508   2.5154   2.9304
     6.8104   8.9402  12.2833  12.2835

          k =-0.0004-0.0010 0.6105 (  2364 PWs)   bands (ev):

   -13.3284 -11.8336 -11.8331  -8.0778  -7.1664  -3.3436  -2.6655  -2.6648
    -1.0562  -1.0560  -0.8041   0.2522   0.4480   0.4528   1.0303   3.7937
     6.6020   9.8435  11.4666  11.4729

          k =-0.0009-0.0020 1.2210 (  2354 PWs)   bands (ev):

   -11.2538  -9.8305  -9.8297  -8.0811  -6.3805  -6.3797  -6.2806  -4.6423
    -3.3710  -1.9602  -0.9467  -0.9465   1.5180   2.4968   2.5051   4.6656
     6.3219   8.1028   8.1144  10.2472

          k =-0.0062 0.5728-0.0005 (  2352 PWs)   bands (ev):

   -13.8241 -13.2898 -11.4362  -9.9961  -6.2092  -4.1217  -1.9058  -1.7214
    -0.7535  -0.2692   0.1928   1.3204   1.3542   1.8090   2.1659   2.3341
     8.2933  10.6691  10.8719  12.2765

          k =-0.0066 0.5718 0.6100 (  2367 PWs)   bands (ev):

   -13.1226 -12.5944 -10.7610  -9.3522  -5.7780  -4.0468  -3.1169  -2.3942
    -1.5194  -1.0718  -0.8871  -0.4101   0.3536   1.0579   2.0663   3.1066
     7.8699   9.7043  11.7049  13.1379

          k =-0.0071 0.5708 1.2205 (  2354 PWs)   bands (ev):

   -11.0596 -10.5557  -8.8691  -8.0962  -7.0469  -7.0241  -5.4021  -4.2104
    -3.6199  -2.1076  -1.2747  -0.6629   1.2902   1.4449   3.4955   4.1182
     6.7511   7.2512   9.3133  10.0171

          k =-0.0053 0.5749-1.2215 (  2354 PWs)   bands (ev):

   -11.0588 -10.5557  -8.8690  -8.0971  -7.0469  -7.0248  -5.4021  -4.2098
    -3.6203  -2.1076  -1.2744  -0.6628   1.2811   1.4448   3.4953   4.1268
     6.7593   7.2513   9.3141  10.0086

          k =-0.0057 0.5738-0.6110 (  2362 PWs)   bands (ev):

   -13.1220 -12.5944 -10.7610  -9.3526  -5.7783  -4.0469  -3.1174  -2.3943
    -1.5192  -1.0769  -0.8872  -0.4096   0.3537   1.0582   2.0662   3.1108
     7.8755   9.7043  11.7271  13.1382

          k =-0.5018 0.0181 0.0004 (  2376 PWs)   bands (ev):

   -13.6512 -13.6510 -10.7063 -10.7062  -5.1631  -5.1630  -1.3266  -1.3257
    -0.5566  -0.5564   1.0826   1.0827   1.3977   1.3981   1.7973   1.7974
     9.1021   9.1029   9.8494   9.8513

          k =-0.5023 0.0170 0.6109 (  2358 PWs)   bands (ev):

   -12.9496 -12.9492 -10.0471 -10.0468  -4.8754  -4.8752  -2.8396  -2.8392
    -0.9385  -0.9381  -0.5157  -0.5117   0.8220   0.8222   2.1758   2.1789
     8.6807   8.6848  10.7305  10.7433

          k =-0.5027 0.0160 1.2214 (  2335 PWs)   bands (ev):

[...]
     6.9817   8.9706  12.8426  12.8460

          k = 0.0026 0.0033 0.6120 (  2364 PWs)   bands (ev):

   -13.3076 -11.7965 -11.7950  -8.0943  -7.1702  -3.2774  -2.6322  -2.6201
    -1.0555  -1.0449  -0.7761   0.2476   0.2679   0.3086   1.0223   3.9501
     6.7306   9.8788  11.5087  11.5248

          k = 0.0053 0.0065 1.2240 (  2354 PWs)   bands (ev):

   -11.2221  -9.7848  -9.7832  -8.0346  -6.3313  -6.3234  -6.2816  -4.6434
    -3.3474  -1.9595  -0.9645  -0.9599   1.5558   2.3322   2.3705   4.7260
     6.4754   7.9759   8.0084  10.3856

          k = 0.0161 0.5232 0.0032 (  2352 PWs)   bands (ev):

   -13.8155 -13.2764 -11.4194 -10.0206  -6.1926  -4.1209  -1.8031  -1.6834
    -0.6679  -0.1837   0.1586   1.2293   1.4392   1.7866   2.2475   2.5898
     8.0998  10.4723  10.5525  12.6366

          k = 0.0187 0.5264 0.6152 (  2367 PWs)   bands (ev):

   -13.1084 -12.5778 -10.7412  -9.3724  -5.7546  -4.0297  -3.0579  -2.3404
    -1.4647  -0.9824  -0.8435  -0.3693   0.3427   1.0669   1.9943   3.3696
     7.7467   9.6234  11.4652  13.1713

          k = 0.0214 0.5297 1.2272 (  2354 PWs)   bands (ev):

   -11.0322 -10.5281  -8.8355  -8.0726  -7.0127  -7.0070  -5.3575  -4.1922
    -3.6060  -2.1018  -1.2595  -0.6679   1.3703   1.4926   3.4875   4.2982
     6.8621   7.2350   9.2821  10.1671

          k = 0.0108 0.5167-1.2208 (  2354 PWs)   bands (ev):

   -11.0366 -10.5259  -8.8378  -8.0624  -7.0180  -7.0034  -5.3635  -4.1910
    -3.6015  -2.1071  -1.2638  -0.6629   1.4096   1.4859   3.4670   4.2698
     6.8254   7.2509   9.3025  10.1949

          k = 0.0135 0.5199-0.6088 (  2362 PWs)   bands (ev):

   -13.1108 -12.5768 -10.7407  -9.3701  -5.7578  -4.0227  -3.0517  -2.3497
    -1.4749  -0.9594  -0.8491  -0.3630   0.3529   1.0579   1.9777   3.3605
     7.7241   9.6429  11.3692  13.1870

          k =-0.5496-0.0056-0.0021 (  2376 PWs)   bands (ev):

   -13.6296 -13.6207 -10.6947 -10.6821  -5.2045  -5.1963  -1.4196  -1.4057
    -0.4758  -0.4612   1.0472   1.0670   1.3064   1.3170   1.8696   1.8939
     9.3917   9.4090  10.2319  10.2698

          k =-0.5470-0.0023 0.6099 (  2358 PWs)   bands (ev):

   -12.9248 -12.9157 -10.0326 -10.0196  -4.8979  -4.8860  -2.7888  -2.7759
    -0.8957  -0.8749  -0.6056  -0.5794   0.8085   0.8291   2.0901   2.1021
     8.8751   8.8961  11.0832  11.1676

          k =-0.5443 0.0009 1.2219 (  2335 PWs)   bands (ev):

   -10.8540 -10.8448  -8.3271  -8.3130  -7.1772  -7.1633  -4.7597  -4.7441
    -2.8597  -2.8519  -0.8915  -0.8789   1.6727   1.7136   3.6645   3.6895
     7.0207   7.0410   9.4411   9.4487

          k =-0.5335 0.5176 0.0011 (  2370 PWs)   bands (ev):

   -13.8946 -12.9926 -11.9808  -9.2308  -7.1771  -3.0123  -2.3576  -0.8426
    -0.7841  -0.4391   0.1480   0.1907   0.9897   2.2558   2.5037   2.9739
     7.7007  10.3664  11.4530  12.5488

          k =-0.5309 0.5209 0.6131 (  2351 PWs)   bands (ev):

   -13.1892 -12.2922 -11.2965  -8.6049  -6.6563  -3.2737  -3.2022  -2.0355
    -1.7690  -1.5152  -0.2912   0.0966   0.3503   0.9918   1.0687   3.7909
     7.2476  10.6500  11.2873  12.2775

          k =-0.5282 0.5241 1.2251 (  2340 PWs)   bands (ev):

   -11.1161 -10.2452  -9.3281  -7.9873  -6.7498  -6.5712  -5.8687  -4.3184
    -3.6294  -1.7278  -1.4440  -0.6763   0.9112   2.4383   2.9545   4.2548
     6.6975   7.9365   8.6249  10.3867

          k =-0.5388 0.5111-1.2228 (  2346 PWs)   bands (ev):

   -11.1186 -10.2478  -9.3220  -7.9873  -6.7540  -6.5634  -5.8683  -4.3220
    -3.6340  -1.7247  -1.4401  -0.6807   0.9372   2.4494   2.9303   4.2205
     6.6894   7.9034   8.6778  10.4056

          k =-0.5362 0.5144-0.6108 (  2351 PWs)   bands (ev):

   -13.1908 -12.2933 -11.2939  -8.6047  -6.6539  -3.2831  -3.2017  -2.0285
    -1.7583  -1.5009  -0.3023   0.0886   0.3573   0.9740   1.0754   3.7751
     7.2447  10.6401  11.2598  12.3093

     the Fermi energy is     4.9517 ev

!    total energy              =     -91.15947171 Ry
     Harris-Foulkes estimate   =     -91.15947171 Ry
     estimated scf accuracy    <          1.1E-11 Ry

     The total energy is the sum of the following terms:

     one-electron contribution =     -46.24041669 Ry
     hartree contribution      =      37.10778827 Ry
     xc contribution           =     -27.97022013 Ry
     ewald contribution        =     -54.05703424 Ry
     smearing contrib. (-TS)   =       0.00041107 Ry

     convergence has been achieved in  10 iterations

     Forces acting on atoms (cartesian axes, Ry/au):

     atom    1 type  1   force =     0.00778297   -0.00158526    0.00034623
     atom    2 type  1   force =    -0.00890574    0.00152313   -0.00325748
     atom    3 type  1   force =    -0.00767740    0.00106591   -0.00064498
     atom    4 type  1   force =     0.00440073   -0.00040472    0.00350386
     atom    5 type  1   force =    -0.00176946   -0.00108968   -0.00237604
     atom    6 type  1   force =     0.00364396    0.00179602   -0.00055848
     atom    7 type  1   force =     0.00576206   -0.00050393    0.00202756
     atom    8 type  1   force =    -0.00323714   -0.00080146    0.00095932

     Total force =     0.018004     Total SCF correction =     0.000004


     Computing stress (Cartesian axis) and pressure

          total   stress  (Ry/bohr**3)                   (kbar)     P=        4.19
  -0.00003717   0.00001840  -0.00000655           -5.47        2.71       -0.96
   0.00001840  -0.00000690   0.00000353            2.71       -1.02        0.52
  -0.00000655   0.00000353   0.00012951           -0.96        0.52       19.05


     number of scf cycles    =  35
     number of bfgs steps    =  33

     enthalpy old            =     -91.1592689074 Ry
     enthalpy new            =     -91.1594343878 Ry

     CASE: enthalpy_new < enthalpy_old

     new trust radius        =       0.1379089011 bohr
     new conv_thr            =       0.0000000002 Ry

     new unit-cell volume =    556.32011 a.u.^3 (    82.43813 Ang^3 )
     density =      1.93371 g/cm^3

CELL_PARAMETERS (bohr)
  12.761996216  -0.386797495  -0.067091497
  -0.108743815   9.353023750  -0.058725126
  -0.021699823  -0.033678761   4.662706594

ATOMIC_POSITIONS (crystal)
C             0.3764972113        0.4600237475        0.5964786614
C             0.4606802184        0.3761032202        0.0967796210
C             0.2105587808        0.6259845633        0.5952174235
C             0.1253698948        0.7079759720        0.0947484474
C             0.9577543747        0.8715367983        1.0960369363
C             0.8732285426        0.9540776384        0.5959032958
C             0.6245319584        0.2064223291        0.0949899586
C             0.7078810190        0.1217067312        0.5949226560



     Writing output data file ./pp.save/
     NEW-OLD atomic charge density approx. for the potential
     extrapolated charge   32.41674, renormalised to   32.00000

     total cpu time spent up to now is     1963.3 secs

     Self-consistent Calculation

     iteration #  1     ecut=    40.00 Ry     beta= 0.50
     Davidson diagonalization with overlap
     ethr =  1.00E-06,  avg # of iterations =  6.3

     total cpu time spent up to now is     1997.6 secs

     total energy              =     -91.15465814 Ry
     Harris-Foulkes estimate   =     -90.63926033 Ry
     estimated scf accuracy    <       0.00243799 Ry

     iteration #  2     ecut=    40.00 Ry     beta= 0.50
     Davidson diagonalization with overlap
     ethr =  7.62E-06,  avg # of iterations =  3.6

     total cpu time spent up to now is     2022.7 secs

     total energy              =     -91.15993778 Ry
     Harris-Foulkes estimate   =     -91.16051701 Ry
     estimated scf accuracy    <       0.00184382 Ry

     iteration #  3     ecut=    40.00 Ry     beta= 0.50
     Davidson diagonalization with overlap
     ethr =  5.76E-06,  avg # of iterations =  1.2

     total cpu time spent up to now is     2033.7 secs

     total energy              =     -91.15955579 Ry
     Harris-Foulkes estimate   =     -91.15999263 Ry
     estimated scf accuracy    <       0.00068002 Ry

     iteration #  4     ecut=    40.00 Ry     beta= 0.50
     Davidson diagonalization with overlap
     ethr =  2.13E-06,  avg # of iterations =  2.4

     total cpu time spent up to now is     2050.3 secs

     total energy              =     -91.15971547 Ry
     Harris-Foulkes estimate   =     -91.15973620 Ry
     estimated scf accuracy    <       0.00005432 Ry

     iteration #  5     ecut=    40.00 Ry     beta= 0.50
     Davidson diagonalization with overlap
     ethr =  1.70E-07,  avg # of iterations =  1.0

     total cpu time spent up to now is     2060.8 secs

     total energy              =     -91.15971119 Ry
     Harris-Foulkes estimate   =     -91.15971804 Ry
     estimated scf accuracy    <       0.00001459 Ry

     iteration #  6     ecut=    40.00 Ry     beta= 0.50
     Davidson diagonalization with overlap
     ethr =  4.56E-08,  avg # of iterations =  2.0

     total cpu time spent up to now is     2075.0 secs

     total energy              =     -91.15971114 Ry
     Harris-Foulkes estimate   =     -91.15971233 Ry
     estimated scf accuracy    <       0.00000177 Ry

     iteration #  7     ecut=    40.00 Ry     beta= 0.50
     Davidson diagonalization with overlap
     ethr =  5.53E-09,  avg # of iterations =  2.0

     total cpu time spent up to now is     2090.5 secs

     total energy              =     -91.15971156 Ry
     Harris-Foulkes estimate   =     -91.15971177 Ry
     estimated scf accuracy    <       0.00000036 Ry

     iteration #  8     ecut=    40.00 Ry     beta= 0.50
     Davidson diagonalization with overlap
     ethr =  1.12E-09,  avg # of iterations =  2.0

     total cpu time spent up to now is     2105.9 secs

     total energy              =     -91.15971162 Ry
     Harris-Foulkes estimate   =     -91.15971162 Ry
     estimated scf accuracy    <          1.6E-09 Ry

     iteration #  9     ecut=    40.00 Ry     beta= 0.50
     Davidson diagonalization with overlap
     ethr =  5.11E-12,  avg # of iterations =  2.7

     total cpu time spent up to now is     2123.5 secs

     total energy              =     -91.15971162 Ry
     Harris-Foulkes estimate   =     -91.15971162 Ry
     estimated scf accuracy    <          5.9E-10 Ry

     iteration # 10     ecut=    40.00 Ry     beta= 0.50
     Davidson diagonalization with overlap
     ethr =  1.85E-12,  avg # of iterations =  2.0

     total cpu time spent up to now is     2138.9 secs

     End of self-consistent calculation

          k = 0.0000 0.0000 0.0000 (  2375 PWs)   bands (ev):

   -14.1340 -12.6073 -12.6066  -8.8281  -7.8468  -2.0520  -2.0504  -1.7545
    -0.9775  -0.6946  -0.6939   0.4133   0.4139   2.3113   2.4565   3.0399
     6.9545   8.7936  12.6935  12.6947

          k = 0.0033 0.0039 0.6116 (  2364 PWs)   bands (ev):

   -13.4263 -11.9174 -11.9157  -8.2199  -7.2982  -3.4115  -2.7596  -2.7502
    -1.1754  -1.1674  -0.9339   0.1035   0.1239   0.1723   0.9012   3.8997
     6.6633   9.7032  11.3605  11.3769

          k = 0.0067 0.0078 1.2231 (  2354 PWs)   bands (ev):

   -11.3447  -9.9096  -9.9076  -8.1642  -6.4590  -6.4524  -6.4090  -4.7685
    -3.4784  -2.0849  -1.0806  -1.0769   1.3998   2.1889   2.2266   4.5890
     6.4145   7.8232   7.8586  10.3052

          k = 0.0154 0.5083 0.0037 (  2352 PWs)   bands (ev):

   -13.9383 -13.4040 -11.5325 -10.1401  -6.3119  -4.2318  -1.9135  -1.7655
    -0.8093  -0.3256   0.0407   1.0379   1.3001   1.6696   2.1076   2.4857
     7.9929  10.2504  10.2767  12.6192

          k = 0.0188 0.5122 0.6153 (  2367 PWs)   bands (ev):

   -13.2322 -12.7064 -10.8560  -9.4928  -5.8768  -4.1490  -3.1927  -2.4717
    -1.5960  -1.0961  -0.9267  -0.5011   0.2232   0.9437   1.8079   3.2624
     7.6287   9.4659  11.1781  13.0151

          k = 0.0221 0.5161 1.2269 (  2354 PWs)   bands (ev):

   -11.1593 -10.6592  -8.9572  -8.2026  -7.1412  -7.1343  -5.4819  -4.3193
    -3.7261  -2.2177  -1.3824  -0.7857   1.2506   1.3998   3.3330   4.1806
     6.7445   7.0932   9.1025  10.0500

          k = 0.0088 0.5005-1.2194 (  2354 PWs)   bands (ev):

   -11.1639 -10.6567  -8.9580  -8.1938  -7.1411  -7.1359  -5.4875  -4.3185
    -3.7232  -2.2219  -1.3852  -0.7819   1.2954   1.3878   3.3112   4.1480
     6.7129   7.1081   9.1324  10.0718

          k = 0.0121 0.5044-0.6078 (  2362 PWs)   bands (ev):

   -13.2349 -12.7051 -10.8550  -9.4910  -5.8794  -4.1440  -3.1871  -2.4792
    -1.6043  -1.0698  -0.9355  -0.4964   0.2308   0.9373   1.7877   3.2548
     7.6084   9.4870  11.0668  13.0380

          k =-0.5588-0.0065-0.0026 (  2376 PWs)   bands (ev):

   -13.7471 -13.7379 -10.8184 -10.8074  -5.3241  -5.3169  -1.5841  -1.5659
    -0.6161  -0.6018   0.9345   0.9528   1.2195   1.2300   1.7300   1.7521
     9.3168   9.3330  10.1083  10.1573

          k =-0.5554-0.0026 0.6089 (  2358 PWs)   bands (ev):

   -13.0436 -13.0342 -10.1571 -10.1457  -5.0202  -5.0100  -2.9209  -2.9085
    -1.0281  -1.0100  -0.7701  -0.7389   0.6905   0.7086   2.0003   2.0111
     8.7687   8.7916  10.9553  11.0611

          k =-0.5521 0.0012 1.2205 (  2335 PWs)   bands (ev):

   -10.9770 -10.9673  -8.4555  -8.4434  -7.3023  -7.2905  -4.8892  -4.8755
    -2.9799  -2.9732  -1.0114  -1.0005   1.5115   1.5582   3.5486   3.5699
     6.8900   6.9143   9.3299   9.3382

          k =-0.5433 0.5018 0.0011 (  2370 PWs)   bands (ev):

   -14.0202 -13.1108 -12.1074  -9.3433  -7.2904  -3.1337  -2.4612  -0.9577
    -0.9261  -0.5799   0.0076   0.1287   0.8484   2.1401   2.3646   2.7950
     7.5068  10.1489  11.3804  12.2863

          k =-0.5400 0.5057 0.6127 (  2351 PWs)   bands (ev):

   -13.3157 -12.4118 -11.4239  -8.7191  -6.7718  -3.4036  -3.3388  -2.1673
    -1.8953  -1.6213  -0.4132  -0.0358   0.2096   0.9232   0.9538   3.6127
     7.0798  10.5448  11.0701  12.1592

          k =-0.5367 0.5095 1.2242 (  2340 PWs)   bands (ev):

   -11.2454 -10.3689  -9.4580  -8.1207  -6.8779  -6.6881  -6.0001  -4.4356
    -3.7535  -1.8474  -1.5639  -0.7962   0.7986   2.3004   2.8690   4.1251
     6.5251   7.8113   8.5298  10.2170

          k =-0.5500 0.4940-1.2220 (  2346 PWs)   bands (ev):

   -11.2481 -10.3709  -9.4522  -8.1198  -6.8810  -6.6819  -6.0011  -4.4387
    -3.7573  -1.8446  -1.5615  -0.7991   0.8271   2.3107   2.8388   4.0897
     6.5182   7.7829   8.5859  10.2339

          k =-0.5467 0.4979-0.6105 (  2351 PWs)   bands (ev):

   -13.3173 -12.4127 -11.4212  -8.7186  -6.7703  -3.4107  -3.3380  -2.1630
    -1.8875  -1.6055  -0.4214  -0.0420   0.2154   0.9039   0.9565   3.5980
     7.0785  10.5398  11.0475  12.1922

     the Fermi energy is     4.8087 ev

!    total energy              =     -91.15971162 Ry
     Harris-Foulkes estimate   =     -91.15971162 Ry
     estimated scf accuracy    <          1.1E-10 Ry

     The total energy is the sum of the following terms:

     one-electron contribution =     -48.58500814 Ry
     hartree contribution      =      38.12992586 Ry
     xc contribution           =     -27.96568190 Ry
     ewald contribution        =     -52.73940416 Ry
     smearing contrib. (-TS)   =       0.00045672 Ry

     convergence has been achieved in  10 iterations

     Forces acting on atoms (cartesian axes, Ry/au):

     atom    1 type  1   force =     0.00670459   -0.00139096    0.00021948
     atom    2 type  1   force =    -0.00782692    0.00070536   -0.00267310
     atom    3 type  1   force =    -0.00712868    0.00095863   -0.00060469
     atom    4 type  1   force =     0.00401161   -0.00047840    0.00278820
     atom    5 type  1   force =    -0.00126319   -0.00059112   -0.00153329
     atom    6 type  1   force =     0.00289682    0.00147833   -0.00040238
     atom    7 type  1   force =     0.00462013    0.00005408    0.00132006
     atom    8 type  1   force =    -0.00201436   -0.00073591    0.00088572

     Total force =     0.015348     Total SCF correction =     0.000008


     Computing stress (Cartesian axis) and pressure

          total   stress  (Ry/bohr**3)                   (kbar)     P=        2.97
  -0.00002454   0.00001129  -0.00000482           -3.61        1.66       -0.71
   0.00001129  -0.00000570   0.00000221            1.66       -0.84        0.32
  -0.00000482   0.00000221   0.00009081           -0.71        0.32       13.36


     number of scf cycles    =  36
     number of bfgs steps    =  34

     enthalpy old            =     -91.1594343878 Ry
     enthalpy new            =     -91.1596737978 Ry

     CASE: enthalpy_new < enthalpy_old

     new trust radius        =       0.1608197534 bohr
     new conv_thr            =       0.0000000002 Ry

     new unit-cell volume =    566.41175 a.u.^3 (    83.93356 Ang^3 )
     density =      1.89926 g/cm^3

CELL_PARAMETERS (bohr)
  12.551302092  -0.316939929  -0.081619564
  -0.100430382   9.665305169  -0.069261450
  -0.026595495  -0.038976501   4.670728553

ATOMIC_POSITIONS (crystal)
C             0.3772875907        0.4606653870        0.5962246748
C             0.4608843853        0.3764158757        0.0962768082
C             0.2106423325        0.6262601316        0.5957250553
C             0.1256731532        0.7079733344        0.0954441825
C             0.9572358893        0.8711613437        1.0951543131
C             0.8729967141        0.9539102304        0.5951403965
C             0.6244896250        0.2063743592        0.0956657442
C             0.7072923099        0.1210703380        0.5954458254



     Writing output data file ./pp.save/
     NEW-OLD atomic charge density approx. for the potential
     extrapolated charge   32.57013, renormalised to   32.00000

     total cpu time spent up to now is     2139.4 secs

     Self-consistent Calculation

     iteration #  1     ecut=    40.00 Ry     beta= 0.50
     Davidson diagonalization with overlap
     ethr =  1.00E-06,  avg # of iterations =  6.8

     total cpu time spent up to now is     2177.6 secs

     total energy              =     -91.14998720 Ry
     Harris-Foulkes estimate   =     -90.39397631 Ry
     estimated scf accuracy    <       0.00456979 Ry

     iteration #  2     ecut=    40.00 Ry     beta= 0.50
     Davidson diagonalization with overlap
     ethr =  1.43E-05,  avg # of iterations =  3.6

     total cpu time spent up to now is     2200.5 secs

     total energy              =     -91.16032339 Ry
     Harris-Foulkes estimate   =     -91.16147479 Ry
     estimated scf accuracy    <       0.00362613 Ry

     iteration #  3     ecut=    40.00 Ry     beta= 0.50
     Davidson diagonalization with overlap
     ethr =  1.13E-05,  avg # of iterations =  1.0

     total cpu time spent up to now is     2211.5 secs

     total energy              =     -91.15953928 Ry
     Harris-Foulkes estimate   =     -91.16042921 Ry
     estimated scf accuracy    <       0.00135036 Ry

     iteration #  4     ecut=    40.00 Ry     beta= 0.50
     Davidson diagonalization with overlap
     ethr =  4.22E-06,  avg # of iterations =  2.8

     total cpu time spent up to now is     2230.2 secs

     total energy              =     -91.15985333 Ry
     Harris-Foulkes estimate   =     -91.15988961 Ry
     estimated scf accuracy    <       0.00009181 Ry

     iteration #  5     ecut=    40.00 Ry     beta= 0.50
     Davidson diagonalization with overlap
     ethr =  2.87E-07,  avg # of iterations =  1.2

     total cpu time spent up to now is     2242.0 secs

     total energy              =     -91.15984745 Ry
     Harris-Foulkes estimate   =     -91.15985817 Ry
     estimated scf accuracy    <       0.00002273 Ry

     iteration #  6     ecut=    40.00 Ry     beta= 0.50
     Davidson diagonalization with overlap
     ethr =  7.10E-08,  avg # of iterations =  2.0

     total cpu time spent up to now is     2257.1 secs

     total energy              =     -91.15984745 Ry
     Harris-Foulkes estimate   =     -91.15984926 Ry
     estimated scf accuracy    <       0.00000271 Ry

     iteration #  7     ecut=    40.00 Ry     beta= 0.50
     Davidson diagonalization with overlap
