
     Program PWSCF v.6.5 starts on  8Jul2022 at 20:33:14 

     This program is part of the open-source Quantum ESPRESSO suite
     for quantum simulation of materials; please cite
         "P. Giannozzi et al., J. Phys.:Condens. Matter 21 395502 (2009);
         "P. Giannozzi et al., J. Phys.:Condens. Matter 29 465901 (2017);
          URL http://www.quantum-espresso.org", 
     in publications or presentations arising from this work. More details at
     http://www.quantum-espresso.org/quote

     Parallel version (MPI), running on    96 processors

     MPI processes distributed on     2 nodes
     R & G space division:  proc/nbgrp/npool/nimage =      96
     Waiting for input...
     Reading input from standard input
     Message from routine read_cards :
     DEPRECATED: no units specified in CELL_PARAMETERS card

     Current dimensions of program PWSCF are:
     Max number of different atomic species (ntypx) = 10
     Max number of k-points (npk) =  40000
     Max angular momentum in pseudopotentials (lmaxx) =  3

     Subspace diagonalization in iterative solution of the eigenvalue problem:
     one sub-group per band group will be used
     scalapack distributed-memory algorithm (size of sub-group:  9*  9 procs)

 
     Parallelization info
     --------------------
     sticks:   dense  smooth     PW     G-vecs:    dense   smooth      PW
     Min          16      16      4                  202      202      32
     Max          17      17      5                  204      204      36
     Sum        1565    1565    473                19501    19501    3313
 


     bravais-lattice index     =            0
     lattice parameter (alat)  =      10.5295  a.u.
     unit-cell volume          =     569.6882 (a.u.)^3
     number of atoms/cell      =            8
     number of atomic types    =            1
     number of electrons       =        32.00
     number of Kohn-Sham states=           20
     kinetic-energy cutoff     =      40.0000  Ry
     charge density cutoff     =     160.0000  Ry
     convergence threshold     =      1.0E-08
     mixing beta               =       0.5000
     number of iterations used =            8  plain     mixing
     Exchange-correlation=  SLA  PW   PBE  PBE
                           (   1   4   3   4   0   0   0)
     nstep                     =          250


     celldm(1)=  10.529496  celldm(2)=   0.000000  celldm(3)=   0.000000
     celldm(4)=   0.000000  celldm(5)=   0.000000  celldm(6)=   0.000000

     crystal axes: (cart. coord. in units of alat)
               a(1) = (   0.998937  -0.043592   0.015005 )  
               a(2) = (  -0.019868   1.106302   0.012660 )  
               a(3) = (   0.005480   0.005765   0.442072 )  

     reciprocal axes: (cart. coord. in units 2 pi/alat)
               b(1) = (  1.002046  0.018141 -0.012658 )  
               b(2) = (  0.039667  0.904765 -0.012290 )  
               b(3) = ( -0.035149 -0.026526  2.262854 )  


     PseudoPot. # 1 for C  read from file:
     ./C.pbe-van_bm.upf
     MD5 check sum: 1a69bf6b8db32088f5b2163dbdb77a27
     Pseudo is Ultrasoft, Zval =  4.0
     Generated by new atomic code, or converted to UPF format
     Using radial grid of  721 points,  4 beta functions with: 
                l(1) =   0
                l(2) =   0
                l(3) =   1
                l(4) =   1
     Q(r) pseudized with  8 coefficients,  rinner =    0.800   0.800   0.800


     atomic species   valence    mass     pseudopotential
        C              4.00    12.00000     C ( 1.00)

     No symmetry found



   Cartesian axes

     site n.     atom                  positions (alat units)
         1           C   tau(   1) = (   0.2281628   0.2910133   0.3032802  )
         2           C   tau(   2) = (   0.1413351   0.3830885   0.0820642  )
         3           C   tau(   3) = (   0.3986571   0.0984089   0.3035333  )
         4           C   tau(   4) = (   0.8884479   0.6299000   0.3173180  )
         5           C   tau(   5) = (   0.7180694   0.8225817   0.3171021  )
         6           C   tau(   6) = (   0.4602844   1.1069562   0.0953513  )
         7           C   tau(   7) = (   0.9697622   0.5320473   0.0964688  )
         8           C   tau(   8) = (   0.6311012   0.9145788   0.0958662  )

     number of k points=    12  Marzari-Vanderbilt smearing, width (Ry)=  0.0200
                       cart. coord. in units 2pi/alat
        k(    1) = (   0.0000000   0.0000000   0.0000000), wk =   0.1000000
        k(    2) = (  -0.0070298  -0.0053051   0.4525708), wk =   0.2000000
        k(    3) = (  -0.0140595  -0.0106102   0.9051417), wk =   0.2000000
        k(    4) = (  -0.0198335  -0.4523827   0.0061451), wk =   0.1000000
        k(    5) = (  -0.0268633  -0.4576879   0.4587159), wk =   0.2000000
        k(    6) = (  -0.0338930  -0.4629930   0.9112868), wk =   0.2000000
        k(    7) = (  -0.5010231  -0.0090703   0.0063289), wk =   0.1000000
        k(    8) = (  -0.5080529  -0.0143754   0.4588997), wk =   0.2000000
        k(    9) = (  -0.5150826  -0.0196805   0.9114706), wk =   0.2000000
        k(   10) = (  -0.5208566  -0.4614530   0.0124739), wk =   0.1000000
        k(   11) = (  -0.5278863  -0.4667581   0.4650448), wk =   0.2000000
        k(   12) = (  -0.5349161  -0.4720633   0.9176156), wk =   0.2000000

     Dense  grid:    19501 G-vectors     FFT dimensions: (  45,  48,  20)

     Estimated max dynamical RAM per process >       1.30 MB

     Estimated total dynamical RAM >     124.44 MB

     Initial potential from superposition of free atoms

     starting charge   31.99968, renormalised to   32.00000
     Starting wfcs are   32 randomized atomic wfcs

     total cpu time spent up to now is        1.5 secs

     Self-consistent Calculation

     iteration #  1     ecut=    40.00 Ry     beta= 0.50
     Davidson diagonalization with overlap
     ethr =  1.00E-02,  avg # of iterations =  2.4

     total cpu time spent up to now is        2.2 secs

     total energy              =     -91.11521795 Ry
     Harris-Foulkes estimate   =     -91.49774623 Ry
     estimated scf accuracy    <       0.78159389 Ry

     iteration #  2     ecut=    40.00 Ry     beta= 0.50
     Davidson diagonalization with overlap
     ethr =  2.44E-03,  avg # of iterations =  2.0

     total cpu time spent up to now is        2.7 secs

     total energy              =     -91.14475268 Ry
     Harris-Foulkes estimate   =     -91.17736293 Ry
     estimated scf accuracy    <       0.07197533 Ry

     iteration #  3     ecut=    40.00 Ry     beta= 0.50
     Davidson diagonalization with overlap
     ethr =  2.25E-04,  avg # of iterations =  3.8

     total cpu time spent up to now is        3.6 secs

     total energy              =     -91.15617360 Ry
     Harris-Foulkes estimate   =     -91.15618585 Ry
     estimated scf accuracy    <       0.00205834 Ry

     iteration #  4     ecut=    40.00 Ry     beta= 0.50
     Davidson diagonalization with overlap
     ethr =  6.43E-06,  avg # of iterations =  3.3

     total cpu time spent up to now is        4.4 secs

     total energy              =     -91.15636329 Ry
     Harris-Foulkes estimate   =     -91.15643634 Ry
     estimated scf accuracy    <       0.00017765 Ry

     iteration #  5     ecut=    40.00 Ry     beta= 0.50
     Davidson diagonalization with overlap
     ethr =  5.55E-07,  avg # of iterations =  2.2

     total cpu time spent up to now is        5.0 secs

     total energy              =     -91.15639961 Ry
     Harris-Foulkes estimate   =     -91.15640117 Ry
     estimated scf accuracy    <       0.00000612 Ry

     iteration #  6     ecut=    40.00 Ry     beta= 0.50
     Davidson diagonalization with overlap
     ethr =  1.91E-08,  avg # of iterations =  2.4

     total cpu time spent up to now is        5.6 secs

     total energy              =     -91.15640031 Ry
     Harris-Foulkes estimate   =     -91.15640094 Ry
     estimated scf accuracy    <       0.00000163 Ry

     iteration #  7     ecut=    40.00 Ry     beta= 0.50
     Davidson diagonalization with overlap
     ethr =  5.10E-09,  avg # of iterations =  2.0

     total cpu time spent up to now is        6.2 secs

     total energy              =     -91.15640057 Ry
     Harris-Foulkes estimate   =     -91.15640056 Ry
     estimated scf accuracy    <       0.00000002 Ry

     iteration #  8     ecut=    40.00 Ry     beta= 0.50
     Davidson diagonalization with overlap
     ethr =  5.12E-11,  avg # of iterations =  3.0

     total cpu time spent up to now is        6.9 secs

     End of self-consistent calculation

          k = 0.0000 0.0000 0.0000 (  2451 PWs)   bands (ev):

   -14.3430 -12.8227 -12.8221  -9.1585  -7.9802  -2.1932  -2.1925  -2.0318
    -1.2363  -1.0064  -1.0057   0.1135   0.1141   2.0615   2.2533   2.9635
     7.2521   8.4862  12.2971  12.2975

          k =-0.0070-0.0053 0.4526 (  2440 PWs)   bands (ev):

   -13.6343 -12.1319 -12.1305  -8.5516  -7.4158  -3.6690  -2.9339  -2.9328
    -1.4226  -1.4220  -1.2021  -0.1996  -0.1919  -0.1788   0.8270   3.8193
     6.8021   9.4081  11.0575  11.0650

          k =-0.0141-0.0106 0.9051 (  2434 PWs)   bands (ev):

   -11.5486 -10.1170 -10.1146  -8.3413  -6.7463  -6.6909  -6.6886  -4.9399
    -3.8272  -2.1966  -1.2743  -1.2727   1.1646   1.9490   1.9716   4.4561
     6.3213   7.4920   7.5189  10.1866

          k =-0.0198-0.4524 0.0061 (  2434 PWs)   bands (ev):

   -13.9486 -13.9466 -11.0639 -11.0630  -5.4959  -5.4941  -1.9280  -1.9250
    -0.8781  -0.8752   0.8453   0.8457   1.1420   1.1420   1.3850   1.3860
     9.1421   9.1432  10.2232  10.2268

          k =-0.0269-0.4577 0.4587 (  2432 PWs)   bands (ev):

   -13.2459 -13.2409 -10.4014 -10.3981  -5.1752  -5.1733  -3.1881  -3.1829
    -1.2758  -1.2717  -1.1194  -1.0675   0.5104   0.5109   1.9101   1.9452
     8.5548   8.5765  10.9827  11.2234

          k =-0.0339-0.4630 0.9113 (  2427 PWs)   bands (ev):

   -11.1770 -11.1691  -8.6503  -8.6484  -7.5596  -7.5551  -5.1528  -5.1473
    -3.1778  -3.1754  -1.1861  -1.1847   1.2028   1.2879   3.4529   3.4555
     6.6065   6.6390   9.1311   9.1971

          k =-0.5010-0.0091 0.0063 (  2436 PWs)   bands (ev):

   -13.9393 -13.9370 -11.0855 -11.0847  -5.4765  -5.4747  -2.0320  -2.0315
    -0.8771  -0.8741   0.8378   0.8381   1.3729   1.3739   1.3835   1.3845
     8.9129   8.9144  10.7419  10.7457

          k =-0.5081-0.0144 0.4589 (  2429 PWs)   bands (ev):

   -13.2370 -13.2319 -10.4217 -10.4183  -5.1588  -5.1569  -3.1837  -3.1787
    -1.2819  -1.2783  -1.2189  -1.1688   0.5079   0.5086   2.1297   2.1670
     8.3776   8.3972  11.4676  11.7336

          k =-0.5151-0.0197 0.9115 (  2422 PWs)   bands (ev):

   -11.1696 -11.1616  -8.6626  -8.6599  -7.5586  -7.5533  -5.1637  -5.1583
    -3.1662  -3.1637  -1.1814  -1.1800   1.1239   1.2068   3.5492   3.5517
     6.6010   6.6228   9.2516   9.3222

          k =-0.5209-0.4615 0.0125 (  2434 PWs)   bands (ev):

   -14.2766 -12.8795 -12.8789  -9.1215  -7.9489  -2.7601  -2.2051  -2.2045
    -1.2285  -0.3639  -0.3636   0.1070   0.1076   2.0652   2.2562   2.5826
     6.6817  10.4338  10.4344  12.5792

          k =-0.5279-0.4668 0.4650 (  2427 PWs)   bands (ev):

   -13.5716 -12.1855 -12.1842  -8.5174  -7.3857  -3.6499  -2.9513  -2.9495
    -1.9037  -1.4323  -1.4317  -0.1903   0.4203   0.4365   0.8332   3.4506
     6.3694  11.2914  11.3011  11.3273

          k =-0.5349-0.4721 0.9176 (  2442 PWs)   bands (ev):

   -11.4958 -10.1620 -10.1601  -8.3023  -6.7220  -6.7197  -6.7192  -4.9182
    -3.8093  -2.1827  -1.2804  -1.2788   0.5544   2.4495   2.4766   4.0160
     5.9918   8.0136   8.0462   9.9336

     the Fermi energy is     4.6994 ev

!    total energy              =     -91.15640058 Ry
     Harris-Foulkes estimate   =     -91.15640058 Ry
     estimated scf accuracy    <          2.2E-09 Ry

     The total energy is the sum of the following terms:

     one-electron contribution =     -52.96054103 Ry
     hartree contribution      =      40.05724748 Ry
     xc contribution           =     -27.96129712 Ry
     ewald contribution        =     -50.29221580 Ry
     smearing contrib. (-TS)   =       0.00040589 Ry

     convergence has been achieved in   8 iterations

     Forces acting on atoms (cartesian axes, Ry/au):

     atom    1 type  1   force =     0.01410638   -0.01618462   -0.00004861
     atom    2 type  1   force =    -0.01408897    0.01581594   -0.00061197
     atom    3 type  1   force =    -0.01375127    0.01599438    0.00021173
     atom    4 type  1   force =    -0.01401933    0.01621740    0.00019898
     atom    5 type  1   force =     0.01355308   -0.01596738   -0.00034405
     atom    6 type  1   force =     0.01426662   -0.01607925    0.00026643
     atom    7 type  1   force =     0.01417139   -0.01591587    0.00054863
     atom    8 type  1   force =    -0.01423790    0.01611939   -0.00022113

     Total force =     0.060270     Total SCF correction =     0.000041


     Computing stress (Cartesian axis) and pressure

          total   stress  (Ry/bohr**3)                   (kbar)     P=       -0.33
  -0.00010610   0.00010486   0.00000548          -15.61       15.43        0.81
   0.00010486  -0.00012591   0.00000505           15.43      -18.52        0.74
   0.00000548   0.00000505   0.00022535            0.81        0.74       33.15


     BFGS Geometry Optimization

     number of scf cycles    =   1
     number of bfgs steps    =   0

     enthalpy new            =     -91.1563618488 Ry

     new trust radius        =       0.0268999975 bohr
     new conv_thr            =       0.0000000100 Ry

     new unit-cell volume =    569.57270 a.u.^3 (    84.40197 Ang^3 )
     density =      1.88872 g/cm^3

CELL_PARAMETERS (bohr)
  10.489200863  -0.429960011   0.160273776
  -0.178088336  11.611581382   0.135493024
   0.058344074   0.061247879   4.681031608

ATOMIC_POSITIONS (crystal)
C             0.2313846178        0.2672845068        0.6705232370
C             0.1462221977        0.3525096506        0.1704456710
C             0.3961346526        0.1024422939        0.6702801123
C             0.8963695421        0.6025944629        0.6701567054
C             0.7317096922        0.7675094341        0.6704180436
C             0.4814296698        1.0172937966        0.1702751395
C             0.9814975499        0.5173451474        0.1702066921
C             0.6464430779        0.8526667078        0.1704483991



     Writing output data file ./pp.save/
     NEW-OLD atomic charge density approx. for the potential
     extrapolated charge   31.99351, renormalised to   32.00000

     total cpu time spent up to now is        7.0 secs

     Self-consistent Calculation

     iteration #  1     ecut=    40.00 Ry     beta= 0.50
     Davidson diagonalization with overlap
     ethr =  1.00E-06,  avg # of iterations =  5.2

     total cpu time spent up to now is        8.4 secs

     total energy              =     -91.15487234 Ry
     Harris-Foulkes estimate   =     -91.16442040 Ry
     estimated scf accuracy    <       0.00141411 Ry

     iteration #  2     ecut=    40.00 Ry     beta= 0.50
     Davidson diagonalization with overlap
     ethr =  4.42E-06,  avg # of iterations =  1.3

     total cpu time spent up to now is        8.8 secs

     total energy              =     -91.15486743 Ry
     Harris-Foulkes estimate   =     -91.15495649 Ry
     estimated scf accuracy    <       0.00017267 Ry

     iteration #  3     ecut=    40.00 Ry     beta= 0.50
     Davidson diagonalization with overlap
     ethr =  5.40E-07,  avg # of iterations =  2.0

     total cpu time spent up to now is        9.4 secs

     total energy              =     -91.15489872 Ry
     Harris-Foulkes estimate   =     -91.15489911 Ry
     estimated scf accuracy    <       0.00000331 Ry

     iteration #  4     ecut=    40.00 Ry     beta= 0.50
     Davidson diagonalization with overlap
     ethr =  1.03E-08,  avg # of iterations =  2.3

     total cpu time spent up to now is       10.1 secs

     total energy              =     -91.15489941 Ry
     Harris-Foulkes estimate   =     -91.15489952 Ry
     estimated scf accuracy    <       0.00000079 Ry

     iteration #  5     ecut=    40.00 Ry     beta= 0.50
     Davidson diagonalization with overlap
     ethr =  2.48E-09,  avg # of iterations =  2.0

     total cpu time spent up to now is       10.7 secs

     total energy              =     -91.15489950 Ry
     Harris-Foulkes estimate   =     -91.15489957 Ry
     estimated scf accuracy    <       0.00000016 Ry

     iteration #  6     ecut=    40.00 Ry     beta= 0.50
     Davidson diagonalization with overlap
     ethr =  5.15E-10,  avg # of iterations =  2.0

     total cpu time spent up to now is       11.2 secs

     End of self-consistent calculation

          k = 0.0000 0.0000 0.0000 (  2451 PWs)   bands (ev):

   -14.3409 -12.8080 -12.8076  -8.9456  -8.1977  -2.2919  -2.2915  -2.0296
    -1.2019  -0.9669  -0.9667   0.2335   0.2339   1.9383   2.3833   3.2320
     6.9620   8.4895  12.2873  12.2877

          k =-0.0071-0.0054 0.4500 (  2440 PWs)   bands (ev):

   -13.6386 -12.1235 -12.1222  -8.3355  -7.6684  -3.6154  -3.0281  -3.0260
    -1.3205  -1.3195  -1.2179  -0.1746  -0.1610   0.0832   0.5276   4.0747
     6.5182   9.3959  11.0056  11.0130

          k =-0.0142-0.0107 0.9001 (  2434 PWs)   bands (ev):

   -11.5755 -10.1404 -10.1383  -8.4543  -6.6651  -6.6623  -6.5198  -5.0525
    -3.5807  -2.4352  -1.2785  -1.2765   1.0906   1.8781   1.9016   4.2722
     6.5372   7.5575   7.5843  10.3352

          k =-0.0187-0.4538 0.0062 (  2434 PWs)   bands (ev):

   -13.9429 -13.9421 -11.0270 -11.0268  -5.5538  -5.5531  -1.9169  -1.9148
    -0.8227  -0.8212   0.6295   0.6300   1.2535   1.2540   1.6205   1.6213
     9.0246   9.0254  10.2358  10.2393

          k =-0.0258-0.4591 0.4562 (  2432 PWs)   bands (ev):

   -13.2469 -13.2423 -10.3715 -10.3682  -5.2783  -5.2773  -3.0951  -3.0909
    -1.2522  -1.2492  -1.1276  -1.0753   0.4852   0.4873   1.9904   2.0251
     8.4463   8.4678  10.9762  11.2167

          k =-0.0329-0.4645 0.9062 (  2427 PWs)   bands (ev):

   -11.2018 -11.1941  -8.7310  -8.7294  -7.4675  -7.4630  -5.0856  -5.0805
    -3.1871  -3.1849  -1.2415  -1.2400   1.1317   1.2166   3.3478   3.3518
     6.7259   6.7502   9.2335   9.2999

          k =-0.5023-0.0078 0.0064 (  2436 PWs)   bands (ev):

   -13.9335 -13.9324 -11.0488 -11.0487  -5.5347  -5.5340  -2.0218  -2.0213
    -0.8217  -0.8201   0.6226   0.6231   1.4928   1.4933   1.6187   1.6195
     8.7876   8.7890  10.7564  10.7602

          k =-0.5094-0.0131 0.4564 (  2429 PWs)   bands (ev):

   -13.2380 -13.2332 -10.3918 -10.3887  -5.2622  -5.2615  -3.0911  -3.0858
    -1.2598  -1.2553  -1.2273  -1.1771   0.4842   0.4847   2.2152   2.2531
     8.2661   8.2871  11.4594  11.7247

          k =-0.5165-0.0185 0.9064 (  2422 PWs)   bands (ev):

   -11.1944 -11.1866  -8.7411  -8.7403  -7.4669  -7.4640  -5.0974  -5.0914
    -3.1751  -3.1736  -1.2360  -1.2354   1.0541   1.1361   3.4344   3.4407
     6.7327   6.7491   9.3570   9.4272

          k =-0.5210-0.4615 0.0125 (  2434 PWs)   bands (ev):

   -14.2744 -12.8647 -12.8644  -8.9080  -8.1677  -2.7590  -2.3035  -2.3031
    -1.1936  -0.3210  -0.3205   0.2266   0.2270   1.9413   2.3872   2.8412
     6.4277  10.4617  10.4624  12.5119

          k =-0.5281-0.4669 0.4626 (  2427 PWs)   bands (ev):

   -13.5757 -12.1772 -12.1759  -8.3007  -7.6395  -3.5956  -3.0440  -3.0435
    -1.9195  -1.3309  -1.3296   0.0931   0.4396   0.4557   0.5335   3.6967
     6.1052  11.2448  11.2578  11.3466

          k =-0.5352-0.4723 0.9126 (  2442 PWs)   bands (ev):

   -11.5224 -10.1859 -10.1837  -8.4153  -6.6961  -6.6943  -6.4920  -5.0310
    -3.5621  -2.4219  -1.2842  -1.2832   0.4837   2.3745   2.4006   3.8392
     6.2000   8.1005   8.1363  10.0771

     the Fermi energy is     4.4619 ev

!    total energy              =     -91.15489953 Ry
     Harris-Foulkes estimate   =     -91.15489953 Ry
     estimated scf accuracy    <          1.1E-09 Ry

     The total energy is the sum of the following terms:

     one-electron contribution =     -52.92306325 Ry
     hartree contribution      =      40.04056147 Ry
     xc contribution           =     -27.96283220 Ry
     ewald contribution        =     -50.31048198 Ry
     smearing contrib. (-TS)   =       0.00091643 Ry

     convergence has been achieved in   6 iterations

     Forces acting on atoms (cartesian axes, Ry/au):

     atom    1 type  1   force =    -0.02565115    0.02892457   -0.00051628
     atom    2 type  1   force =     0.02571375   -0.02923582    0.00013543
     atom    3 type  1   force =     0.02593096   -0.02906205    0.00024024
     atom    4 type  1   force =     0.02566179   -0.02891287    0.00042183
     atom    5 type  1   force =    -0.02591604    0.02897539   -0.00015832
     atom    6 type  1   force =    -0.02571250    0.02917818    0.00010069
     atom    7 type  1   force =    -0.02567374    0.02922702   -0.00001274
     atom    8 type  1   force =     0.02564694   -0.02909442   -0.00021086

     Total force =     0.109836     Total SCF correction =     0.000046


     Computing stress (Cartesian axis) and pressure

          total   stress  (Ry/bohr**3)                   (kbar)     P=        0.81
   0.00012368  -0.00015810  -0.00000155           18.19      -23.26       -0.23
  -0.00015810   0.00017047  -0.00000196          -23.26       25.08       -0.29
  -0.00000155  -0.00000196  -0.00027759           -0.23       -0.29      -40.83


     number of scf cycles    =   2
     number of bfgs steps    =   1

     enthalpy old            =     -91.1563618488 Ry
     enthalpy new            =     -91.1548608143 Ry

     CASE: enthalpy_new > enthalpy_old

     new trust radius        =       0.0103121370 bohr
     new conv_thr            =       0.0000000100 Ry

     new unit-cell volume =    569.64790 a.u.^3 (    84.41311 Ang^3 )
     density =      1.88847 g/cm^3

CELL_PARAMETERS (bohr)
  10.507080792  -0.447803596   0.158876657
  -0.197204859  11.634450316   0.134145523
   0.057948324   0.060911235   4.664913629

ATOMIC_POSITIONS (crystal)
C             0.2305768525        0.2681063278        0.6705335370
C             0.1470288474        0.3517067808        0.1705220648
C             0.3969219749        0.1016298121        0.6702487064
C             0.8971722935        0.6017708171        0.6701267784
C             0.7309338326        0.7683208542        0.6704665583
C             0.4806126559        1.0181099095        0.1702443313
C             0.9806861397        0.5181530569        0.1701386775
C             0.6472584035        0.8518484416        0.1704733463



     Writing output data file ./pp.save/
     NEW-OLD atomic charge density approx. for the potential
     extrapolated charge   32.00422, renormalised to   32.00000

     total cpu time spent up to now is       11.3 secs

     Self-consistent Calculation

     iteration #  1     ecut=    40.00 Ry     beta= 0.50
     Davidson diagonalization with overlap
     ethr =  1.00E-06,  avg # of iterations =  5.0

     total cpu time spent up to now is       12.6 secs

     total energy              =     -91.15740040 Ry
     Harris-Foulkes estimate   =     -91.15189191 Ry
     estimated scf accuracy    <       0.00052924 Ry

     iteration #  2     ecut=    40.00 Ry     beta= 0.50
     Davidson diagonalization with overlap
     ethr =  1.65E-06,  avg # of iterations =  1.8

     total cpu time spent up to now is       13.2 secs

     total energy              =     -91.15740006 Ry
     Harris-Foulkes estimate   =     -91.15743288 Ry
     estimated scf accuracy    <       0.00006466 Ry

     iteration #  3     ecut=    40.00 Ry     beta= 0.50
     Davidson diagonalization with overlap
     ethr =  2.02E-07,  avg # of iterations =  2.0

     total cpu time spent up to now is       13.8 secs

     total energy              =     -91.15741135 Ry
     Harris-Foulkes estimate   =     -91.15741145 Ry
     estimated scf accuracy    <       0.00000122 Ry

     iteration #  4     ecut=    40.00 Ry     beta= 0.50
     Davidson diagonalization with overlap
     ethr =  3.82E-09,  avg # of iterations =  2.4

     total cpu time spent up to now is       14.5 secs

     total energy              =     -91.15741160 Ry
     Harris-Foulkes estimate   =     -91.15741165 Ry
     estimated scf accuracy    <       0.00000030 Ry

     iteration #  5     ecut=    40.00 Ry     beta= 0.50
     Davidson diagonalization with overlap
     ethr =  9.26E-10,  avg # of iterations =  2.0

     total cpu time spent up to now is       15.1 secs

     total energy              =     -91.15741164 Ry
     Harris-Foulkes estimate   =     -91.15741167 Ry
     estimated scf accuracy    <       0.00000006 Ry

     iteration #  6     ecut=    40.00 Ry     beta= 0.50
     Davidson diagonalization with overlap
     ethr =  1.99E-10,  avg # of iterations =  2.0

     total cpu time spent up to now is       15.7 secs

     End of self-consistent calculation

          k = 0.0000 0.0000 0.0000 (  2451 PWs)   bands (ev):

   -14.3414 -12.8157 -12.8154  -9.0770  -8.0623  -2.2306  -2.2303  -2.0300
    -1.2211  -0.9900  -0.9896   0.1617   0.1620   2.1313   2.1852   3.0665
     7.1407   8.4874  12.2943  12.2944

          k =-0.0071-0.0053 0.4516 (  2440 PWs)   bands (ev):

   -13.6350 -12.1273 -12.1259  -8.4689  -7.5115  -3.6474  -2.9676  -2.9662
    -1.3847  -1.3844  -1.2072  -0.1840  -0.1707  -0.0908   0.7112   3.9172
     6.6931   9.4035  11.0367  11.0442

          k =-0.0141-0.0107 0.9032 (  2434 PWs)   bands (ev):

   -11.5575 -10.1236 -10.1214  -8.3813  -6.6801  -6.6777  -6.6595  -4.9852
    -3.7326  -2.2890  -1.2780  -1.2763   1.1371   1.9231   1.9460   4.3861
     6.4039   7.5164   7.5433  10.2428

          k =-0.0194-0.4529 0.0062 (  2434 PWs)   bands (ev):

   -13.9455 -13.9440 -11.0476 -11.0470  -5.5190  -5.5177  -1.9227  -1.9201
    -0.8548  -0.8525   0.7628   0.7632   1.1865   1.1867   1.4769   1.4777
     9.0957   9.0966  10.2285  10.2320

          k =-0.0265-0.4582 0.4577 (  2432 PWs)   bands (ev):

   -13.2453 -13.2405 -10.3874 -10.3842  -5.2160  -5.2146  -3.1514  -3.1465
    -1.2588  -1.2550  -1.1215  -1.0695   0.4931   0.4941   1.9429   1.9779
     8.5111   8.5328  10.9807  11.2215

          k =-0.0335-0.4636 0.9093 (  2427 PWs)   bands (ev):

   -11.1849 -11.1771  -8.6764  -8.6747  -7.5255  -7.5211  -5.1244  -5.1189
    -3.1836  -3.1814  -1.2108  -1.2094   1.1764   1.2615   3.4156   3.4166
     6.6508   6.6801   9.1698   9.2361

          k =-0.5015-0.0086 0.0063 (  2436 PWs)   bands (ev):

   -13.9361 -13.9343 -11.0693 -11.0687  -5.4997  -5.4983  -2.0269  -2.0268
    -0.8538  -0.8514   0.7555   0.7559   1.4207   1.4216   1.4752   1.4761
     8.8632   8.8647  10.7480  10.7519

          k =-0.5086-0.0139 0.4579 (  2429 PWs)   bands (ev):

   -13.2363 -13.2314 -10.4077 -10.4045  -5.1998  -5.1984  -3.1471  -3.1420
    -1.2655  -1.2615  -1.2211  -1.1710   0.4912   0.4917   2.1647   2.2022
     8.3326   8.3527  11.4652  11.7311

          k =-0.5156-0.0192 0.9095 (  2422 PWs)   bands (ev):

   -11.1775 -11.1697  -8.6879  -8.6859  -7.5247  -7.5204  -5.1356  -5.1300
    -3.1719  -3.1698  -1.2058  -1.2048   1.0980   1.1806   3.5070   3.5110
     6.6500   6.6697   9.2915   9.3620

          k =-0.5209-0.4615 0.0125 (  2434 PWs)   bands (ev):

   -14.2749 -12.8725 -12.8722  -9.0398  -8.0315  -2.7588  -2.2424  -2.2421
    -1.2131  -0.3459  -0.3458   0.1551   0.1553   2.1342   2.1890   2.6818
     6.5846  10.4448  10.4454  12.5517

          k =-0.5280-0.4668 0.4641 (  2427 PWs)   bands (ev):

   -13.5722 -12.1809 -12.1797  -8.4345  -7.4818  -3.6280  -2.9844  -2.9832
    -1.9089  -1.3946  -1.3943  -0.0813   0.4292   0.4453   0.7172   3.5450
     6.2681  11.2720  11.2830  11.3348

          k =-0.5350-0.4721 0.9157 (  2442 PWs)   bands (ev):

   -11.5046 -10.1689 -10.1668  -8.3422  -6.7112  -6.7091  -6.6322  -4.9636
    -3.7144  -2.2753  -1.2839  -1.2826   0.5281   2.4221   2.4488   3.9487
     6.0714   8.0460   8.0798   9.9879

     the Fermi energy is     4.6241 ev

!    total energy              =     -91.15741166 Ry
     Harris-Foulkes estimate   =     -91.15741166 Ry
     estimated scf accuracy    <          4.7E-10 Ry

     The total energy is the sum of the following terms:

     one-electron contribution =     -52.93636267 Ry
     hartree contribution      =      40.04615643 Ry
     xc contribution           =     -27.96090817 Ry
     ewald contribution        =     -50.30676313 Ry
     smearing contrib. (-TS)   =       0.00046589 Ry

     convergence has been achieved in   6 iterations

     Forces acting on atoms (cartesian axes, Ry/au):

     atom    1 type  1   force =    -0.00038441    0.00023833   -0.00023657
     atom    2 type  1   force =     0.00041607   -0.00057866   -0.00031564
     atom    3 type  1   force =     0.00070457   -0.00040005    0.00022107
     atom    4 type  1   force =     0.00044626   -0.00021846    0.00028859
     atom    5 type  1   force =    -0.00082349    0.00038542   -0.00026732
     atom    6 type  1   force =    -0.00029972    0.00039102    0.00020426
     atom    7 type  1   force =    -0.00035266    0.00051754    0.00032799
     atom    8 type  1   force =     0.00029336   -0.00033513   -0.00022238

     Total force =     0.001958     Total SCF correction =     0.000029


     Computing stress (Cartesian axis) and pressure

          total   stress  (Ry/bohr**3)                   (kbar)     P=       -0.77
  -0.00002700   0.00001505   0.00000296           -3.97        2.21        0.44
   0.00001505  -0.00002469   0.00000260            2.21       -3.63        0.38
   0.00000296   0.00000260   0.00003591            0.44        0.38        5.28


     number of scf cycles    =   3
     number of bfgs steps    =   1

     enthalpy old            =     -91.1563618488 Ry
     enthalpy new            =     -91.1573729311 Ry

     CASE: enthalpy_new < enthalpy_old

     new trust radius        =       0.0041685022 bohr
     new conv_thr            =            1.0E-10 Ry

     new unit-cell volume =    569.40915 a.u.^3 (    84.37773 Ang^3 )
     density =      1.88926 g/cm^3

CELL_PARAMETERS (bohr)
  10.499837969  -0.443676258   0.159772457
  -0.192802933  11.627278571   0.135012586
   0.058280098   0.061201257   4.668969042

ATOMIC_POSITIONS (crystal)
C             0.2305280338        0.2681382823        0.6704819235
C             0.1470807951        0.3516458152        0.1704532587
C             0.3970015522        0.1015849905        0.6702958934
C             0.8972270670        0.6017407744        0.6701893764
C             0.7308428123        0.7683639511        0.6704098111
C             0.4805717329        1.0181550815        0.1702891934
C             0.9806402003        0.5182089310        0.1702102877
C             0.6472988064        0.8518081740        0.1704242560



     Writing output data file ./pp.save/
     NEW-OLD atomic charge density approx. for the potential
     extrapolated charge   31.98658, renormalised to   32.00000

     total cpu time spent up to now is       15.7 secs

     Self-consistent Calculation

     iteration #  1     ecut=    40.00 Ry     beta= 0.50
     Davidson diagonalization with overlap
     ethr =  1.00E-06,  avg # of iterations =  2.0

     Threshold (ethr) on eigenvalues was too large:
     Diagonalizing with lowered threshold

     Davidson diagonalization with overlap
     ethr =  1.21E-08,  avg # of iterations =  3.0

     total cpu time spent up to now is       17.1 secs

     total energy              =     -91.15742747 Ry
     Harris-Foulkes estimate   =     -91.17572784 Ry
     estimated scf accuracy    <       0.00000398 Ry

     iteration #  2     ecut=    40.00 Ry     beta= 0.50
     Davidson diagonalization with overlap
     ethr =  1.24E-08,  avg # of iterations =  2.7

     total cpu time spent up to now is       17.9 secs

     total energy              =     -91.15743326 Ry
     Harris-Foulkes estimate   =     -91.15743391 Ry
     estimated scf accuracy    <       0.00000190 Ry

     iteration #  3     ecut=    40.00 Ry     beta= 0.50
     Davidson diagonalization with overlap
     ethr =  5.93E-09,  avg # of iterations =  1.0

     total cpu time spent up to now is       18.4 secs

     total energy              =     -91.15743302 Ry
     Harris-Foulkes estimate   =     -91.15743334 Ry
     estimated scf accuracy    <       0.00000058 Ry

     iteration #  4     ecut=    40.00 Ry     beta= 0.50
     Davidson diagonalization with overlap
     ethr =  1.83E-09,  avg # of iterations =  2.0

     total cpu time spent up to now is       19.1 secs

     total energy              =     -91.15743312 Ry
     Harris-Foulkes estimate   =     -91.15743313 Ry
     estimated scf accuracy    <       0.00000003 Ry

     iteration #  5     ecut=    40.00 Ry     beta= 0.50
     Davidson diagonalization with overlap
     ethr =  8.26E-11,  avg # of iterations =  2.0

     total cpu time spent up to now is       19.8 secs

     total energy              =     -91.15743313 Ry
     Harris-Foulkes estimate   =     -91.15743313 Ry
     estimated scf accuracy    <          5.5E-09 Ry

     iteration #  6     ecut=    40.00 Ry     beta= 0.50
     Davidson diagonalization with overlap
     ethr =  1.73E-11,  avg # of iterations =  2.0

     total cpu time spent up to now is       20.5 secs

     total energy              =     -91.15743313 Ry
     Harris-Foulkes estimate   =     -91.15743313 Ry
     estimated scf accuracy    <          2.8E-10 Ry

     iteration #  7     ecut=    40.00 Ry     beta= 0.50
     Davidson diagonalization with overlap
     ethr =  8.83E-13,  avg # of iterations =  2.0

     total cpu time spent up to now is       21.3 secs

     End of self-consistent calculation

          k = 0.0000 0.0000 0.0000 (  2451 PWs)   bands (ev):

   -14.3390 -12.8099 -12.8098  -9.0572  -8.0562  -2.2094  -2.2093  -2.0266
    -1.2433  -0.9841  -0.9841   0.1433   0.1435   2.1519   2.1729   3.0810
     7.1520   8.4918  12.3101  12.3104

          k =-0.0071-0.0054 0.4512 (  2440 PWs)   bands (ev):

   -13.6340 -12.1229 -12.1216  -8.4505  -7.5078  -3.6619  -2.9711  -2.9696
    -1.3739  -1.3735  -1.2051  -0.1799  -0.1665  -0.0951   0.7232   3.9303
     6.6979   9.4061  11.0399  11.0475

          k =-0.0142-0.0107 0.9024 (  2434 PWs)   bands (ev):

   -11.5606 -10.1236 -10.1214  -8.3907  -6.6841  -6.6816  -6.6457  -4.9796
    -3.7264  -2.2834  -1.2610  -1.2593   1.1357   1.9227   1.9460   4.3827
     6.4131   7.5145   7.5415  10.2473

          k =-0.0192-0.4532 0.0062 (  2434 PWs)   bands (ev):

   -13.9418 -13.9412 -11.0375 -11.0374  -5.5021  -5.5016  -1.9185  -1.9167
    -0.8755  -0.8743   0.7848   0.7852   1.1962   1.1968   1.4624   1.4630
     9.1105   9.1113  10.2347  10.2381

          k =-0.0263-0.4585 0.4574 (  2432 PWs)   bands (ev):

   -13.2433 -13.2387 -10.3790 -10.3757  -5.2054  -5.2049  -3.1608  -3.1564
    -1.2642  -1.2605  -1.1193  -1.0670   0.5081   0.5093   1.9509   1.9860
     8.5175   8.5398  10.9844  11.2262

          k =-0.0334-0.4639 0.9086 (  2427 PWs)   bands (ev):

   -11.1871 -11.1794  -8.6774  -8.6759  -7.5266  -7.5223  -5.1241  -5.1186
    -3.1700  -3.1680  -1.1980  -1.1968   1.1749   1.2605   3.4158   3.4166
     6.6527   6.6819   9.1707   9.2375

          k =-0.5019-0.0084 0.0064 (  2436 PWs)   bands (ev):

   -13.9324 -13.9315 -11.0593 -11.0592  -5.4827  -5.4822  -2.0237  -2.0231
    -0.8744  -0.8733   0.7775   0.7779   1.4315   1.4320   1.4607   1.4614
     8.8780   8.8796  10.7554  10.7592

          k =-0.5090-0.0138 0.4576 (  2429 PWs)   bands (ev):

   -13.2343 -13.2296 -10.3994 -10.3961  -5.1892  -5.1887  -3.1566  -3.1518
    -1.2710  -1.2670  -1.2192  -1.1688   0.5063   0.5068   2.1733   2.2111
     8.3391   8.3599  11.4699  11.7372

          k =-0.5160-0.0191 0.9088 (  2422 PWs)   bands (ev):

   -11.1797 -11.1719  -8.6887  -8.6871  -7.5258  -7.5218  -5.1354  -5.1297
    -3.1582  -3.1564  -1.1930  -1.1921   1.0962   1.1793   3.5067   3.5110
     6.6526   6.6724   9.2931   9.3641

          k =-0.5211-0.4616 0.0126 (  2434 PWs)   bands (ev):

   -14.2724 -12.8668 -12.8667  -9.0198  -8.0255  -2.7566  -2.2212  -2.2211
    -1.2353  -0.3394  -0.3391   0.1366   0.1367   2.1548   2.1768   2.6961
     6.5968  10.4534  10.4540  12.5649

          k =-0.5282-0.4669 0.4638 (  2427 PWs)   bands (ev):

   -13.5710 -12.1767 -12.1754  -8.4160  -7.4782  -3.6424  -2.9879  -2.9868
    -1.9081  -1.3837  -1.3834  -0.0855   0.4342   0.4504   0.7293   3.5578
     6.2734  11.2763  11.2878  11.3413

          k =-0.5353-0.4723 0.9150 (  2442 PWs)   bands (ev):

   -11.5075 -10.1690 -10.1670  -8.3516  -6.7152  -6.7131  -6.6183  -4.9580
    -3.7081  -2.2697  -1.2669  -1.2655   0.5253   2.4227   2.4495   3.9440
     6.0804   8.0459   8.0801   9.9919

     the Fermi energy is     4.6194 ev

!    total energy              =     -91.15743313 Ry
     Harris-Foulkes estimate   =     -91.15743313 Ry
     estimated scf accuracy    <          7.8E-11 Ry

     The total energy is the sum of the following terms:

     one-electron contribution =     -52.88933749 Ry
     hartree contribution      =      40.02722216 Ry
     xc contribution           =     -27.96204897 Ry
     ewald contribution        =     -50.33374755 Ry
     smearing contrib. (-TS)   =       0.00047873 Ry

     convergence has been achieved in   7 iterations

     Forces acting on atoms (cartesian axes, Ry/au):

     atom    1 type  1   force =     0.00013909   -0.00026510   -0.00022393
     atom    2 type  1   force =    -0.00013692    0.00005115   -0.00012751
     atom    3 type  1   force =     0.00006537    0.00017852    0.00012418
     atom    4 type  1   force =    -0.00011637    0.00027767    0.00021995
     atom    5 type  1   force =    -0.00009031   -0.00022601   -0.00012379
     atom    6 type  1   force =     0.00015926   -0.00004370    0.00014621
     atom    7 type  1   force =     0.00017317   -0.00005921    0.00017443
     atom    8 type  1   force =    -0.00019330    0.00008669   -0.00018953

     Total force =     0.000797     Total SCF correction =     0.000006


     Computing stress (Cartesian axis) and pressure

          total   stress  (Ry/bohr**3)                   (kbar)     P=       -0.34
  -0.00000539  -0.00000961   0.00000245           -0.79       -1.41        0.36
  -0.00000961   0.00000304   0.00000214           -1.41        0.45        0.31
   0.00000245   0.00000214  -0.00000459            0.36        0.31       -0.67


     number of scf cycles    =   4
     number of bfgs steps    =   2

     enthalpy old            =     -91.1573729311 Ry
     enthalpy new            =     -91.1573944208 Ry

     CASE: enthalpy_new < enthalpy_old

     new trust radius        =       0.0012448860 bohr
     new conv_thr            =            1.0E-10 Ry

     new unit-cell volume =    569.30374 a.u.^3 (    84.36211 Ang^3 )
     density =      1.88961 g/cm^3

CELL_PARAMETERS (bohr)
  10.498201067  -0.445713688   0.160369104
  -0.195008621  11.627659535   0.135601085
   0.058536133   0.061433898   4.668746667

ATOMIC_POSITIONS (crystal)
C             0.2305368590        0.2681203523        0.6704354625
C             0.1470723722        0.3516457975        0.1704245159
C             0.3970120874        0.1015962523        0.6703223275
C             0.8972205819        0.6017598770        0.6702356604
C             0.7308293493        0.7683488301        0.6703830310
C             0.4805827480        1.0181547432        0.1703199727
C             0.9806520336        0.5182080857        0.1702482117
C             0.6472849687        0.8518120619        0.1703848183



     Writing output data file ./pp.save/
     NEW-OLD atomic charge density approx. for the potential
     extrapolated charge   31.99408, renormalised to   32.00000

     total cpu time spent up to now is       21.3 secs

     Self-consistent Calculation

     iteration #  1     ecut=    40.00 Ry     beta= 0.50
     Davidson diagonalization with overlap
     ethr =  1.00E-06,  avg # of iterations =  2.0

     Threshold (ethr) on eigenvalues was too large:
     Diagonalizing with lowered threshold

     Davidson diagonalization with overlap
     ethr =  1.21E-09,  avg # of iterations =  3.0

     total cpu time spent up to now is       23.0 secs

     total energy              =     -91.15743534 Ry
     Harris-Foulkes estimate   =     -91.16550494 Ry
     estimated scf accuracy    <       0.00000041 Ry

     iteration #  2     ecut=    40.00 Ry     beta= 0.50
     Davidson diagonalization with overlap
     ethr =  1.27E-09,  avg # of iterations =  3.2

     total cpu time spent up to now is       24.1 secs

     total energy              =     -91.15743637 Ry
     Harris-Foulkes estimate   =     -91.15743649 Ry
     estimated scf accuracy    <       0.00000041 Ry

     iteration #  3     ecut=    40.00 Ry     beta= 0.50
     Davidson diagonalization with overlap
     ethr =  1.27E-09,  avg # of iterations =  1.0

     total cpu time spent up to now is       24.7 secs

     total energy              =     -91.15743628 Ry
     Harris-Foulkes estimate   =     -91.15743638 Ry
     estimated scf accuracy    <       0.00000016 Ry

     iteration #  4     ecut=    40.00 Ry     beta= 0.50
     Davidson diagonalization with overlap
     ethr =  5.11E-10,  avg # of iterations =  2.0

     total cpu time spent up to now is       25.5 secs

     total energy              =     -91.15743631 Ry
     Harris-Foulkes estimate   =     -91.15743631 Ry
     estimated scf accuracy    <          3.9E-09 Ry

     iteration #  5     ecut=    40.00 Ry     beta= 0.50
     Davidson diagonalization with overlap
     ethr =  1.23E-11,  avg # of iterations =  2.1

     total cpu time spent up to now is       26.4 secs

     total energy              =     -91.15743631 Ry
     Harris-Foulkes estimate   =     -91.15743631 Ry
     estimated scf accuracy    <          3.4E-09 Ry

     iteration #  6     ecut=    40.00 Ry     beta= 0.50
     Davidson diagonalization with overlap
     ethr =  1.05E-11,  avg # of iterations =  2.0

     total cpu time spent up to now is       27.2 secs

     total energy              =     -91.15743631 Ry
     Harris-Foulkes estimate   =     -91.15743631 Ry
     estimated scf accuracy    <          4.0E-10 Ry

     iteration #  7     ecut=    40.00 Ry     beta= 0.50
     Davidson diagonalization with overlap
     ethr =  1.25E-12,  avg # of iterations =  2.0

     total cpu time spent up to now is       28.2 secs

     End of self-consistent calculation

          k = 0.0000 0.0000 0.0000 (  2451 PWs)   bands (ev):

   -14.3363 -12.8074 -12.8074  -9.0565  -8.0543  -2.2094  -2.2093  -2.0233
    -1.2386  -0.9826  -0.9824   0.1477   0.1478   2.1515   2.1766   3.0824
     7.1528   8.4949  12.3100  12.3101

          k =-0.0071-0.0054 0.4512 (  2440 PWs)   bands (ev):

   -13.6312 -12.1204 -12.1191  -8.4498  -7.5059  -3.6577  -2.9685  -2.9671
    -1.3725  -1.3722  -1.2019  -0.1783  -0.1648  -0.0922   0.7238   3.9317
     6.6994   9.4093  11.0407  11.0485

          k =-0.0142-0.0108 0.9024 (  2434 PWs)   bands (ev):

   -11.5576 -10.1209 -10.1187  -8.3874  -6.6810  -6.6785  -6.6445  -4.9775
    -3.7245  -2.2818  -1.2603  -1.2587   1.1389   1.9246   1.9479   4.3854
     6.4146   7.5161   7.5434  10.2488

          k =-0.0193-0.4532 0.0062 (  2434 PWs)   bands (ev):

   -13.9389 -13.9388 -11.0357 -11.0355  -5.5013  -5.5010  -1.9157  -1.9143
    -0.8704  -0.8701   0.7846   0.7846   1.1974   1.1979   1.4666   1.4666
     9.1108   9.1120  10.2385  10.2418

          k =-0.0265-0.4586 0.4574 (  2432 PWs)   bands (ev):

   -13.2406 -13.2359 -10.3771 -10.3738  -5.2041  -5.2038  -3.1572  -3.1527
    -1.2614  -1.2576  -1.1168  -1.0642   0.5088   0.5098   1.9521   1.9874
     8.5187   8.5411  10.9875  11.2305

          k =-0.0336-0.4639 0.9087 (  2427 PWs)   bands (ev):

   -11.1842 -11.1764  -8.6748  -8.6734  -7.5236  -7.5194  -5.1216  -5.1161
    -3.1689  -3.1670  -1.1970  -1.1958   1.1773   1.2634   3.4178   3.4185
     6.6545   6.6841   9.1720   9.2391

          k =-0.5019-0.0085 0.0064 (  2436 PWs)   bands (ev):

   -13.9295 -13.9291 -11.0576 -11.0575  -5.4818  -5.4816  -2.0216  -2.0207
    -0.8694  -0.8690   0.7773   0.7773   1.4333   1.4340   1.4649   1.4650
     8.8779   8.8791  10.7603  10.7640

          k =-0.5091-0.0139 0.4576 (  2429 PWs)   bands (ev):

   -13.2315 -13.2268 -10.3975 -10.3943  -5.1879  -5.1875  -3.1528  -3.1482
    -1.2682  -1.2642  -1.2171  -1.1664   0.5070   0.5074   2.1752   2.2131
     8.3397   8.3606  11.4741  11.7426

          k =-0.5162-0.0193 0.9089 (  2422 PWs)   bands (ev):

   -11.1767 -11.1689  -8.6862  -8.6846  -7.5229  -7.5188  -5.1329  -5.1272
    -3.1571  -3.1552  -1.1920  -1.1911   1.0984   1.1820   3.5089   3.5133
     6.6545   6.6742   9.2948   9.3662

          k =-0.5213-0.4617 0.0126 (  2434 PWs)   bands (ev):

   -14.2695 -12.8645 -12.8645  -9.0191  -8.0235  -2.7547  -2.2212  -2.2212
    -1.2305  -0.3366  -0.3365   0.1410   0.1410   2.1544   2.1805   2.6969
     6.5969  10.4562  10.4566  12.4424

          k =-0.5284-0.4670 0.4638 (  2427 PWs)   bands (ev):

   -13.5681 -12.1743 -12.1731  -8.4152  -7.4761  -3.6382  -2.9854  -2.9842
    -1.9061  -1.3823  -1.3821  -0.0826   0.4368   0.4532   0.7299   3.5587
     6.2742  11.2776  11.2891  11.3438

          k =-0.5355-0.4724 0.9151 (  2442 PWs)   bands (ev):

   -11.5043 -10.1664 -10.1644  -8.3482  -6.7122  -6.7101  -6.6170  -4.9558
    -3.7062  -2.2681  -1.2663  -1.2649   0.5275   2.4253   2.4524   3.9460
     6.0814   8.0482   8.0826   9.9930

     the Fermi energy is     4.6224 ev

!    total energy              =     -91.15743631 Ry
     Harris-Foulkes estimate   =     -91.15743631 Ry
     estimated scf accuracy    <          2.6E-12 Ry

     The total energy is the sum of the following terms:

     one-electron contribution =     -52.83084688 Ry
     hartree contribution      =      40.00010723 Ry
     xc contribution           =     -27.96132170 Ry
     ewald contribution        =     -50.36585180 Ry
     smearing contrib. (-TS)   =       0.00047683 Ry

     convergence has been achieved in   7 iterations

     Forces acting on atoms (cartesian axes, Ry/au):

     atom    1 type  1   force =     0.00000660   -0.00007049   -0.00008867
     atom    2 type  1   force =    -0.00003451   -0.00004225   -0.00014671
     atom    3 type  1   force =     0.00008780    0.00009186    0.00007764
     atom    4 type  1   force =     0.00001878    0.00006310    0.00012208
     atom    5 type  1   force =    -0.00012957   -0.00009005   -0.00010880
     atom    6 type  1   force =     0.00011709    0.00001037    0.00007417
     atom    7 type  1   force =     0.00005951    0.00005235    0.00015506
     atom    8 type  1   force =    -0.00012569   -0.00001489   -0.00008476

     Total force =     0.000434     Total SCF correction =     0.000001


     Computing stress (Cartesian axis) and pressure

          total   stress  (Ry/bohr**3)                   (kbar)     P=       -0.64
  -0.00000847  -0.00000588   0.00000254           -1.25       -0.86        0.37
  -0.00000588  -0.00000091   0.00000211           -0.86       -0.13        0.31
   0.00000254   0.00000211  -0.00000362            0.37        0.31       -0.53


     number of scf cycles    =   5
     number of bfgs steps    =   3

     enthalpy old            =     -91.1573944208 Ry
     enthalpy new            =     -91.1573976101 Ry

     CASE: enthalpy_new < enthalpy_old

     new trust radius        =       0.0013696156 bohr
     new conv_thr            =            1.0E-10 Ry

     new unit-cell volume =    569.13420 a.u.^3 (    84.33699 Ang^3 )
     density =      1.89018 g/cm^3

CELL_PARAMETERS (bohr)
  10.495887926  -0.447383739   0.161048139
  -0.196821375  11.627407197   0.136251069
   0.058827612   0.061690074   4.668546272

ATOMIC_POSITIONS (crystal)
C             0.2305403301        0.2681090480        0.6704017356
C             0.1470676016        0.3516424098        0.1703902447
C             0.3970236884        0.1016055507        0.6703454824
C             0.8972197897        0.6017714087        0.6702740852
C             0.7308136554        0.7683378046        0.6703553397
C             0.4805938707        1.0181559940        0.1703445552
C             0.9806599682        0.5182115029        0.1702876239
C             0.6472720960        0.8518122814        0.1703549334



     Writing output data file ./pp.save/
     NEW-OLD atomic charge density approx. for the potential
     extrapolated charge   31.99047, renormalised to   32.00000

     total cpu time spent up to now is       28.2 secs

     Self-consistent Calculation

     iteration #  1     ecut=    40.00 Ry     beta= 0.50
     Davidson diagonalization with overlap
     ethr =  1.00E-06,  avg # of iterations =  2.0

     Threshold (ethr) on eigenvalues was too large:
     Diagonalizing with lowered threshold

     Davidson diagonalization with overlap
     ethr =  3.76E-09,  avg # of iterations =  2.4

     total cpu time spent up to now is       30.1 secs

     total energy              =     -91.15743640 Ry
     Harris-Foulkes estimate   =     -91.17040511 Ry
     estimated scf accuracy    <       0.00000122 Ry

     iteration #  2     ecut=    40.00 Ry     beta= 0.50
     Davidson diagonalization with overlap
     ethr =  3.82E-09,  avg # of iterations =  3.0

     total cpu time spent up to now is       31.3 secs

     total energy              =     -91.15743918 Ry
     Harris-Foulkes estimate   =     -91.15743948 Ry
     estimated scf accuracy    <       0.00000094 Ry

     iteration #  3     ecut=    40.00 Ry     beta= 0.50
     Davidson diagonalization with overlap
     ethr =  2.93E-09,  avg # of iterations =  1.0

     total cpu time spent up to now is       32.0 secs

     total energy              =     -91.15743898 Ry
     Harris-Foulkes estimate   =     -91.15743921 Ry
     estimated scf accuracy    <       0.00000034 Ry

     iteration #  4     ecut=    40.00 Ry     beta= 0.50
     Davidson diagonalization with overlap
     ethr =  1.08E-09,  avg # of iterations =  2.0

     total cpu time spent up to now is       33.1 secs

     total energy              =     -91.15743906 Ry
     Harris-Foulkes estimate   =     -91.15743906 Ry
     estimated scf accuracy    <       0.00000001 Ry

     iteration #  5     ecut=    40.00 Ry     beta= 0.50
     Davidson diagonalization with overlap
     ethr =  4.36E-11,  avg # of iterations =  1.2

     total cpu time spent up to now is       33.9 secs

     total energy              =     -91.15743905 Ry
     Harris-Foulkes estimate   =     -91.15743906 Ry
     estimated scf accuracy    <          6.5E-09 Ry

     iteration #  6     ecut=    40.00 Ry     beta= 0.50
     Davidson diagonalization with overlap
     ethr =  2.02E-11,  avg # of iterations =  1.4

     total cpu time spent up to now is       34.7 secs

     total energy              =     -91.15743905 Ry
     Harris-Foulkes estimate   =     -91.15743905 Ry
     estimated scf accuracy    <          1.9E-09 Ry

     iteration #  7     ecut=    40.00 Ry     beta= 0.50
     Davidson diagonalization with overlap
     ethr =  5.99E-12,  avg # of iterations =  2.0

     total cpu time spent up to now is       35.8 secs

     total energy              =     -91.15743905 Ry
     Harris-Foulkes estimate   =     -91.15743905 Ry
     estimated scf accuracy    <          1.4E-10 Ry

     iteration #  8     ecut=    40.00 Ry     beta= 0.50
     Davidson diagonalization with overlap
     ethr =  4.31E-13,  avg # of iterations =  2.1

     total cpu time spent up to now is       36.9 secs

     End of self-consistent calculation

          k = 0.0000 0.0000 0.0000 (  2451 PWs)   bands (ev):

   -14.3335 -12.8046 -12.8046  -9.0544  -8.0518  -2.2075  -2.2074  -2.0197
    -1.2345  -0.9804  -0.9803   0.1517   0.1518   2.1533   2.1804   3.0851
     7.1554   8.4989  12.3123  12.3124

          k =-0.0072-0.0054 0.4512 (  2440 PWs)   bands (ev):

   -13.6284 -12.1175 -12.1162  -8.4476  -7.5032  -3.6540  -2.9653  -2.9639
    -1.3699  -1.3696  -1.1983  -0.1761  -0.1625  -0.0888   0.7261   3.9345
     6.7023   9.4133  11.0434  11.0512

          k =-0.0143-0.0108 0.9025 (  2434 PWs)   bands (ev):

   -11.5545 -10.1179 -10.1156  -8.3840  -6.6777  -6.6752  -6.6421  -4.9748
    -3.7217  -2.2792  -1.2582  -1.2565   1.1425   1.9270   1.9505   4.3889
     6.4176   7.5188   7.5462  10.2518

          k =-0.0194-0.4532 0.0062 (  2434 PWs)   bands (ev):

   -13.9362 -13.9359 -11.0331 -11.0330  -5.4991  -5.4990  -1.9126  -1.9115
    -0.8662  -0.8661   0.7864   0.7865   1.1995   1.2000   1.4705   1.4705
     9.1135   9.1146  10.2432  10.2464

          k =-0.0266-0.4586 0.4575 (  2432 PWs)   bands (ev):

   -13.2377 -13.2330 -10.3744 -10.3711  -5.2016  -5.2015  -3.1536  -3.1492
    -1.2581  -1.2542  -1.1140  -1.0610   0.5111   0.5121   1.9542   1.9897
     8.5216   8.5441  10.9915  11.2358

          k =-0.0337-0.4640 0.9087 (  2427 PWs)   bands (ev):

   -11.1811 -11.1733  -8.6718  -8.6703  -7.5205  -7.5163  -5.1185  -5.1130
    -3.1666  -3.1646  -1.1947  -1.1934   1.1802   1.2668   3.4205   3.4212
     6.6574   6.6871   9.1746   9.2421

          k =-0.5021-0.0086 0.0064 (  2436 PWs)   bands (ev):

   -13.9264 -13.9264 -11.0550 -11.0550  -5.4795  -5.4795  -2.0191  -2.0179
    -0.8651  -0.8650   0.7791   0.7791   1.4363   1.4369   1.4688   1.4689
     8.8797   8.8809  10.7663  10.7699

          k =-0.5092-0.0140 0.4577 (  2429 PWs)   bands (ev):

   -13.2286 -13.2239 -10.3950 -10.3917  -5.1853  -5.1851  -3.1493  -3.1446
    -1.2649  -1.2608  -1.2145  -1.1635   0.5092   0.5096   2.1781   2.2163
     8.3419   8.3629  11.4793  11.7492

          k =-0.5164-0.0194 0.9089 (  2422 PWs)   bands (ev):

   -11.1736 -11.1658  -8.6832  -8.6816  -7.5198  -7.5156  -5.1299  -5.1242
    -3.1547  -3.1529  -1.1896  -1.1887   1.1010   1.1851   3.5120   3.5164
     6.6573   6.6772   9.2978   9.3696

          k =-0.5215-0.4618 0.0127 (  2434 PWs)   bands (ev):

   -14.2666 -12.8619 -12.8618  -9.0169  -8.0209  -2.7525  -2.2193  -2.2192
    -1.2264  -0.3333  -0.3332   0.1450   0.1450   2.1562   2.1843   2.6990
     6.5989  10.4601  10.4604  12.4495

          k =-0.5286-0.4672 0.4639 (  2427 PWs)   bands (ev):

   -13.5650 -12.1716 -12.1703  -8.4129  -7.4734  -3.6345  -2.9822  -2.9811
    -1.9038  -1.3798  -1.3796  -0.0792   0.4401   0.4566   0.7321   3.5609
     6.2765  11.2806  11.2921  11.3474

          k =-0.5358-0.4726 0.9152 (  2442 PWs)   bands (ev):

   -11.5011 -10.1635 -10.1614  -8.3447  -6.7091  -6.7069  -6.6145  -4.9531
    -3.7033  -2.2654  -1.2641  -1.2627   0.5300   2.4286   2.4559   3.9488
     6.0838   8.0515   8.0862   9.9958

     the Fermi energy is     4.6260 ev

!    total energy              =     -91.15743905 Ry
     Harris-Foulkes estimate   =     -91.15743905 Ry
     estimated scf accuracy    <          4.7E-12 Ry

     The total energy is the sum of the following terms:

     one-electron contribution =     -52.77238773 Ry
     hartree contribution      =      39.97421025 Ry
     xc contribution           =     -27.96131273 Ry
     ewald contribution        =     -50.39842424 Ry
     smearing contrib. (-TS)   =       0.00047540 Ry

     convergence has been achieved in   8 iterations

     Forces acting on atoms (cartesian axes, Ry/au):

     atom    1 type  1   force =    -0.00005067    0.00003188   -0.00004388
     atom    2 type  1   force =     0.00000136   -0.00005553   -0.00008166
     atom    3 type  1   force =     0.00009448    0.00003281    0.00003514
     atom    4 type  1   force =     0.00005667   -0.00002976    0.00006961
     atom    5 type  1   force =    -0.00011415   -0.00003179   -0.00005864
     atom    6 type  1   force =     0.00005518    0.00007452    0.00002587
     atom    7 type  1   force =     0.00002004    0.00007293    0.00008778
     atom    8 type  1   force =    -0.00006293   -0.00009506   -0.00003422

     Total force =     0.000300     Total SCF correction =     0.000001


     Computing stress (Cartesian axis) and pressure

          total   stress  (Ry/bohr**3)                   (kbar)     P=       -0.65
  -0.00000942  -0.00000476   0.00000257           -1.39       -0.70        0.38
  -0.00000476  -0.00000207   0.00000218           -0.70       -0.30        0.32
   0.00000257   0.00000218  -0.00000185            0.38        0.32       -0.27


     number of scf cycles    =   6
     number of bfgs steps    =   4

     enthalpy old            =     -91.1573976101 Ry
     enthalpy new            =     -91.1574003651 Ry

     CASE: enthalpy_new < enthalpy_old

     new trust radius        =       0.0020548116 bohr
     new conv_thr            =            1.0E-10 Ry

     new unit-cell volume =    568.88933 a.u.^3 (    84.30070 Ang^3 )
     density =      1.89099 g/cm^3

CELL_PARAMETERS (bohr)
  10.492310266  -0.449731644   0.162072196
  -0.199371472  11.626873252   0.137248186
   0.059265147   0.062081103   4.668429970

ATOMIC_POSITIONS (crystal)
C             0.2305425259        0.2680979350        0.6703569175
C             0.1470618212        0.3516380079        0.1703541782
C             0.3970406380        0.1016159999        0.6703721643
C             0.8972196901        0.6017838895        0.6703230077
C             0.7307929947        0.7683241507        0.6703245666
C             0.4806057736        1.0181620754        0.1703728722
C             0.9806702741        0.5182163628        0.1703321304
C             0.6472572825        0.8518075789        0.1703181632



     Writing output data file ./pp.save/
     NEW-OLD atomic charge density approx. for the potential
     extrapolated charge   31.98623, renormalised to   32.00000

     total cpu time spent up to now is       37.0 secs

     Self-consistent Calculation

     iteration #  1     ecut=    40.00 Ry     beta= 0.50
     Davidson diagonalization with overlap
     ethr =  1.00E-06,  avg # of iterations =  2.0

     Threshold (ethr) on eigenvalues was too large:
     Diagonalizing with lowered threshold

     Davidson diagonalization with overlap
     ethr =  7.73E-09,  avg # of iterations =  2.1

     total cpu time spent up to now is       39.1 secs

     total energy              =     -91.15743729 Ry
     Harris-Foulkes estimate   =     -91.17614416 Ry
     estimated scf accuracy    <       0.00000250 Ry

     iteration #  2     ecut=    40.00 Ry     beta= 0.50
     Davidson diagonalization with overlap
     ethr =  7.81E-09,  avg # of iterations =  3.0

     total cpu time spent up to now is       40.6 secs

     total energy              =     -91.15744306 Ry
     Harris-Foulkes estimate   =     -91.15744370 Ry
     estimated scf accuracy    <       0.00000196 Ry

     iteration #  3     ecut=    40.00 Ry     beta= 0.50
     Davidson diagonalization with overlap
     ethr =  6.14E-09,  avg # of iterations =  1.0

     total cpu time spent up to now is       41.4 secs

     total energy              =     -91.15744264 Ry
     Harris-Foulkes estimate   =     -91.15744312 Ry
     estimated scf accuracy    <       0.00000073 Ry

     iteration #  4     ecut=    40.00 Ry     beta= 0.50
     Davidson diagonalization with overlap
     ethr =  2.28E-09,  avg # of iterations =  2.0

     total cpu time spent up to now is       42.6 secs

     total energy              =     -91.15744281 Ry
     Harris-Foulkes estimate   =     -91.15744282 Ry
     estimated scf accuracy    <       0.00000004 Ry

     iteration #  5     ecut=    40.00 Ry     beta= 0.50
     Davidson diagonalization with overlap
     ethr =  1.25E-10,  avg # of iterations =  1.0

     total cpu time spent up to now is       43.5 secs

     total energy              =     -91.15744280 Ry
     Harris-Foulkes estimate   =     -91.15744281 Ry
     estimated scf accuracy    <       0.00000001 Ry

     iteration #  6     ecut=    40.00 Ry     beta= 0.50
     Davidson diagonalization with overlap
     ethr =  3.95E-11,  avg # of iterations =  1.3

     total cpu time spent up to now is       44.4 secs

     total energy              =     -91.15744280 Ry
     Harris-Foulkes estimate   =     -91.15744280 Ry
     estimated scf accuracy    <          4.0E-09 Ry

     iteration #  7     ecut=    40.00 Ry     beta= 0.50
     Davidson diagonalization with overlap
     ethr =  1.24E-11,  avg # of iterations =  2.0

     total cpu time spent up to now is       45.7 secs

     total energy              =     -91.15744280 Ry
     Harris-Foulkes estimate   =     -91.15744280 Ry
     estimated scf accuracy    <          1.0E-10 Ry

     iteration #  8     ecut=    40.00 Ry     beta= 0.50
     Davidson diagonalization with overlap
     ethr =  3.13E-13,  avg # of iterations =  2.4

     total cpu time spent up to now is       47.2 secs

     End of self-consistent calculation

          k = 0.0000 0.0000 0.0000 (  2451 PWs)   bands (ev):

   -14.3293 -12.8004 -12.8003  -9.0509  -8.0478  -2.2040  -2.2039  -2.0144
    -1.2294  -0.9771  -0.9770   0.1567   0.1568   2.1567   2.1852   3.0894
     7.1595   8.5047  12.3158  12.3159

          k =-0.0072-0.0055 0.4513 (  2440 PWs)   bands (ev):

   -13.6242 -12.1132 -12.1119  -8.4439  -7.4991  -3.6492  -2.9609  -2.9595
    -1.3660  -1.3657  -1.1930  -0.1728  -0.1591  -0.0843   0.7298   3.9388
     6.7066   9.4191  11.0470  11.0549

          k =-0.0144-0.0109 0.9025 (  2434 PWs)   bands (ev):

   -11.5501 -10.1135 -10.1112  -8.3795  -6.6732  -6.6707  -6.6383  -4.9708
    -3.7176  -2.2752  -1.2545  -1.2528   1.1477   1.9304   1.9542   4.3938
     6.4219   7.5222   7.5501  10.2561

          k =-0.0195-0.4532 0.0063 (  2434 PWs)   bands (ev):

   -13.9321 -13.9315 -11.0290 -11.0289  -5.4955  -5.4953  -1.9080  -1.9072
    -0.8614  -0.8607   0.7897   0.7900   1.2029   1.2033   1.4751   1.4756
     9.1175   9.1188  10.2502  10.2532

          k =-0.0267-0.4587 0.4575 (  2432 PWs)   bands (ev):

   -13.2335 -13.2287 -10.3703 -10.3670  -5.1979  -5.1976  -3.1490  -3.1444
    -1.2537  -1.2497  -1.1097  -1.0563   0.5148   0.5158   1.9574   1.9933
     8.5258   8.5485  10.9974  11.2435

          k =-0.0339-0.4641 0.9088 (  2427 PWs)   bands (ev):

   -11.1767 -11.1689  -8.6674  -8.6660  -7.5161  -7.5119  -5.1142  -5.1086
    -3.1628  -3.1609  -1.1909  -1.1897   1.1843   1.2717   3.4245   3.4250
     6.6614   6.6915   9.1781   9.2462

          k =-0.5022-0.0087 0.0065 (  2436 PWs)   bands (ev):

   -13.9222 -13.9220 -11.0511 -11.0511  -5.4759  -5.4756  -2.0153  -2.0139
    -0.8603  -0.8597   0.7823   0.7826   1.4408   1.4414   1.4735   1.4739
     8.8828   8.8838  10.7752  10.7787

          k =-0.5094-0.0141 0.4577 (  2429 PWs)   bands (ev):

   -13.2243 -13.2195 -10.3910 -10.3877  -5.1814  -5.1811  -3.1446  -3.1398
    -1.2604  -1.2564  -1.2108  -1.1593   0.5129   0.5134   2.1825   2.2210
     8.3452   8.3664  11.4868  11.7589

          k =-0.5167-0.0196 0.9090 (  2422 PWs)   bands (ev):

   -11.1691 -11.1613  -8.6790  -8.6773  -7.5154  -7.5112  -5.1257  -5.1199
    -3.1509  -3.1490  -1.1858  -1.1849   1.1047   1.1896   3.5164   3.5209
     6.6614   6.6814   9.3018   9.3744

          k =-0.5218-0.4619 0.0128 (  2434 PWs)   bands (ev):

   -14.2621 -12.8579 -12.8577  -9.0132  -8.0167  -2.7492  -2.2159  -2.2158
    -1.2212  -0.3283  -0.3282   0.1499   0.1500   2.1596   2.1891   2.7024
     6.6020  10.4659  10.4661  12.4602

          k =-0.5290-0.4674 0.4640 (  2427 PWs)   bands (ev):

   -13.5606 -12.1675 -12.1662  -8.4092  -7.4692  -3.6295  -2.9779  -2.9767
    -1.9004  -1.3758  -1.3757  -0.0746   0.4450   0.4617   0.7358   3.5643
     6.2800  11.2848  11.2964  11.3528

          k =-0.5362-0.4728 0.9153 (  2442 PWs)   bands (ev):

   -11.4966 -10.1593 -10.1572  -8.3400  -6.7047  -6.7025  -6.6106  -4.9490
    -3.6992  -2.2614  -1.2605  -1.2591   0.5336   2.4333   2.4610   3.9525
     6.0874   8.0562   8.0911   9.9995

     the Fermi energy is     4.6311 ev

!    total energy              =     -91.15744280 Ry
     Harris-Foulkes estimate   =     -91.15744280 Ry
     estimated scf accuracy    <          7.6E-12 Ry

     The total energy is the sum of the following terms:

     one-electron contribution =     -52.68444958 Ry
     hartree contribution      =      39.93507181 Ry
     xc contribution           =     -27.96118566 Ry
     ewald contribution        =     -50.44735302 Ry
     smearing contrib. (-TS)   =       0.00047365 Ry

     convergence has been achieved in   8 iterations

     Forces acting on atoms (cartesian axes, Ry/au):

     atom    1 type  1   force =    -0.00009176    0.00012570    0.00005267
     atom    2 type  1   force =     0.00004829   -0.00007223   -0.00005050
     atom    3 type  1   force =     0.00006097    0.00001014   -0.00002038
     atom    4 type  1   force =     0.00010150   -0.00013864   -0.00001749
     atom    5 type  1   force =    -0.00008222    0.00001752   -0.00001109
     atom    6 type  1   force =     0.00003513    0.00007885   -0.00003070
     atom    7 type  1   force =    -0.00004068    0.00010634    0.00003803
     atom    8 type  1   force =    -0.00003124   -0.00012768    0.00003945

     Total force =     0.000346     Total SCF correction =     0.000000


     Computing stress (Cartesian axis) and pressure

          total   stress  (Ry/bohr**3)                   (kbar)     P=       -0.72
  -0.00001037  -0.00000356   0.00000266           -1.53       -0.52        0.39
  -0.00000356  -0.00000323   0.00000219           -0.52       -0.48        0.32
   0.00000266   0.00000219  -0.00000115            0.39        0.32       -0.17


     number of scf cycles    =   7
     number of bfgs steps    =   5

     enthalpy old            =     -91.1574003651 Ry
     enthalpy new            =     -91.1574041295 Ry

     CASE: enthalpy_new < enthalpy_old

     new trust radius        =       0.0030831157 bohr
     new conv_thr            =            1.0E-10 Ry

     new unit-cell volume =    568.51209 a.u.^3 (    84.24480 Ang^3 )
     density =      1.89224 g/cm^3

CELL_PARAMETERS (bohr)
  10.486843646  -0.453089505   0.163627448
  -0.203018975  11.625935359   0.138738021
   0.059929961   0.062665478   4.668270072

ATOMIC_POSITIONS (crystal)
C             0.2305445068        0.2680860840        0.6703084801
C             0.1470560054        0.3516314924        0.1703053801
C             0.3970614114        0.1016317676        0.6704014063
C             0.8972216484        0.6017962768        0.6703793409
C             0.7307662613        0.7683057659        0.6702876262
C             0.4806236268        1.0181693854        0.1704052803
C             0.9806815517        0.5182249049        0.1703900091
C             0.6472359881        0.8518003230        0.1702764770



     Writing output data file ./pp.save/
     NEW-OLD atomic charge density approx. for the potential
     extrapolated charge   31.97877, renormalised to   32.00000

     total cpu time spent up to now is       47.3 secs

     Self-consistent Calculation

     iteration #  1     ecut=    40.00 Ry     beta= 0.50
     Davidson diagonalization with overlap
     ethr =  1.00E-06,  avg # of iterations =  2.0

     Threshold (ethr) on eigenvalues was too large:
     Diagonalizing with lowered threshold

     Davidson diagonalization with overlap
     ethr =  1.86E-08,  avg # of iterations =  1.7

     total cpu time spent up to now is       49.8 secs

     total energy              =     -91.15743497 Ry
     Harris-Foulkes estimate   =     -91.18620054 Ry
     estimated scf accuracy    <       0.00000601 Ry

     iteration #  2     ecut=    40.00 Ry     beta= 0.50
     Davidson diagonalization with overlap
     ethr =  1.88E-08,  avg # of iterations =  3.0

     total cpu time spent up to now is       51.5 secs

     total energy              =     -91.15744872 Ry
     Harris-Foulkes estimate   =     -91.15745022 Ry
     estimated scf accuracy    <       0.00000462 Ry

     iteration #  3     ecut=    40.00 Ry     beta= 0.50
     Davidson diagonalization with overlap
     ethr =  1.44E-08,  avg # of iterations =  1.0

     total cpu time spent up to now is       52.5 secs

     total energy              =     -91.15744772 Ry
     Harris-Foulkes estimate   =     -91.15744886 Ry
     estimated scf accuracy    <       0.00000170 Ry

     iteration #  4     ecut=    40.00 Ry     beta= 0.50
     Davidson diagonalization with overlap
     ethr =  5.31E-09,  avg # of iterations =  2.0

     total cpu time spent up to now is       54.0 secs

     total energy              =     -91.15744812 Ry
     Harris-Foulkes estimate   =     -91.15744816 Ry
     estimated scf accuracy    <       0.00000011 Ry

     iteration #  5     ecut=    40.00 Ry     beta= 0.50
     Davidson diagonalization with overlap
     ethr =  3.37E-10,  avg # of iterations =  1.6

     total cpu time spent up to now is       55.3 secs

     total energy              =     -91.15744812 Ry
     Harris-Foulkes estimate   =     -91.15744812 Ry
     estimated scf accuracy    <       0.00000002 Ry

     iteration #  6     ecut=    40.00 Ry     beta= 0.50
     Davidson diagonalization with overlap
     ethr =  7.77E-11,  avg # of iterations =  1.2

     total cpu time spent up to now is       56.4 secs

     total energy              =     -91.15744811 Ry
     Harris-Foulkes estimate   =     -91.15744812 Ry
     estimated scf accuracy    <          8.1E-09 Ry

     iteration #  7     ecut=    40.00 Ry     beta= 0.50
     Davidson diagonalization with overlap
     ethr =  2.53E-11,  avg # of iterations =  2.0

     total cpu time spent up to now is       58.0 secs

     total energy              =     -91.15744811 Ry
     Harris-Foulkes estimate   =     -91.15744811 Ry
     estimated scf accuracy    <          2.9E-10 Ry

     iteration #  8     ecut=    40.00 Ry     beta= 0.50
     Davidson diagonalization with overlap
     ethr =  9.00E-13,  avg # of iterations =  2.4

     total cpu time spent up to now is       59.7 secs

     End of self-consistent calculation

          k = 0.0000 0.0000 0.0000 (  2451 PWs)   bands (ev):

   -14.3232 -12.7940 -12.7938  -9.0452  -8.0417  -2.1984  -2.1983  -2.0064
    -1.2221  -0.9721  -0.9720   0.1639   0.1641   2.1622   2.1923   3.0960
     7.1661   8.5134  12.3217  12.3218

          k =-0.0073-0.0055 0.4513 (  2440 PWs)   bands (ev):

   -13.6179 -12.1068 -12.1054  -8.4382  -7.4930  -3.6422  -2.9543  -2.9528
    -1.3599  -1.3596  -1.1850  -0.1678  -0.1539  -0.0776   0.7356   3.9454
     6.7134   9.4279  11.0528  11.0608

          k =-0.0146-0.0110 0.9026 (  2434 PWs)   bands (ev):

   -11.5437 -10.1069 -10.1046  -8.3728  -6.6665  -6.6639  -6.6323  -4.9646
    -3.7113  -2.2691  -1.2487  -1.2470   1.1555   1.9356   1.9598   4.4012
     6.4285   7.5277   7.5559  10.2627

          k =-0.0197-0.4533 0.0063 (  2434 PWs)   bands (ev):

   -13.9260 -13.9251 -11.0228 -11.0226  -5.4900  -5.4894  -1.9012  -1.9007
    -0.8544  -0.8532   0.7952   0.7955   1.2079   1.2085   1.4823   1.4827
     9.1243   9.1254  10.2608  10.2635

          k =-0.0270-0.4588 0.4576 (  2432 PWs)   bands (ev):

   -13.2272 -13.2223 -10.3641 -10.3607  -5.1921  -5.1915  -3.1422  -3.1375
    -1.2469  -1.2430  -1.1034  -1.0493   0.5206   0.5217   1.9624   1.9988
     8.5324   8.5555  11.0062  11.2552

          k =-0.0342-0.4643 0.9089 (  2427 PWs)   bands (ev):

   -11.1703 -11.1623  -8.6610  -8.6594  -7.5097  -7.5052  -5.1077  -5.1020
    -3.1570  -3.1549  -1.1850  -1.1837   1.1904   1.2791   3.4304   3.4310
     6.6676   6.6981   9.1835   9.2525

          k =-0.5025-0.0089 0.0066 (  2436 PWs)   bands (ev):

   -13.9160 -13.9154 -11.0452 -11.0450  -5.4702  -5.4696  -2.0096  -2.0080
    -0.8532  -0.8521   0.7878   0.7880   1.4479   1.4483   1.4806   1.4810
     8.8876   8.8887  10.7886  10.7919

          k =-0.5098-0.0144 0.4578 (  2429 PWs)   bands (ev):

   -13.2179 -13.2130 -10.3850 -10.3816  -5.1755  -5.1748  -3.1378  -3.1329
    -1.2539  -1.2497  -1.2053  -1.1530   0.5188   0.5192   2.1892   2.2282
     8.3504   8.3719  11.4982  11.7734

          k =-0.5171-0.0199 0.9091 (  2422 PWs)   bands (ev):

   -11.1627 -11.1546  -8.6726  -8.6709  -7.5089  -7.5046  -5.1193  -5.1134
    -3.1449  -3.1430  -1.1799  -1.1789   1.1102   1.1963   3.5230   3.5276
     6.6675   6.6878   9.3082   9.3817

          k =-0.5222-0.4621 0.0129 (  2434 PWs)   bands (ev):

   -14.2555 -12.8518 -12.8516  -9.0073  -8.0105  -2.7443  -2.2103  -2.2102
    -1.2139  -0.3208  -0.3207   0.1571   0.1573   2.1651   2.1961   2.7077
     6.6071  10.4748  10.4749  12.4762

          k =-0.5295-0.4676 0.4642 (  2427 PWs)   bands (ev):

   -13.5539 -12.1614 -12.1601  -8.4032  -7.4629  -3.6224  -2.9714  -2.9702
    -1.8955  -1.3698  -1.3696  -0.0679   0.4523   0.4693   0.7417   3.5697
     6.2854  11.2914  11.3031  11.3611

          k =-0.5368-0.4731 0.9155 (  2442 PWs)   bands (ev):

   -11.4898 -10.1530 -10.1508  -8.3331  -6.6982  -6.6959  -6.6045  -4.9427
    -3.6928  -2.2552  -1.2547  -1.2533   0.5388   2.4405   2.4686   3.9581
     6.0930   8.0631   8.0988  10.0053

     the Fermi energy is     4.6387 ev

!    total energy              =     -91.15744811 Ry
     Harris-Foulkes estimate   =     -91.15744811 Ry
     estimated scf accuracy    <          1.8E-12 Ry

     The total energy is the sum of the following terms:

     one-electron contribution =     -52.55485444 Ry
     hartree contribution      =      39.87772363 Ry
     xc contribution           =     -27.96118557 Ry
     ewald contribution        =     -50.51960296 Ry
     smearing contrib. (-TS)   =       0.00047123 Ry

     convergence has been achieved in   8 iterations

     Forces acting on atoms (cartesian axes, Ry/au):

     atom    1 type  1   force =    -0.00013015    0.00022715    0.00011504
     atom    2 type  1   force =     0.00007447   -0.00005162    0.00004264
     atom    3 type  1   force =     0.00005248   -0.00005385   -0.00007314
     atom    4 type  1   force =     0.00011241   -0.00021992   -0.00009039
     atom    5 type  1   force =    -0.00004194    0.00007311    0.00005249
     atom    6 type  1   force =    -0.00003881    0.00012964   -0.00010157
     atom    7 type  1   force =    -0.00006893    0.00008786   -0.00006123
     atom    8 type  1   force =     0.00004048   -0.00019238    0.00011615

     Total force =     0.000528     Total SCF correction =     0.000001


     Computing stress (Cartesian axis) and pressure

          total   stress  (Ry/bohr**3)                   (kbar)     P=       -0.75
  -0.00001115  -0.00000244   0.00000270           -1.64       -0.36        0.40
  -0.00000244  -0.00000416   0.00000231           -0.36       -0.61        0.34
   0.00000270   0.00000231   0.00000003            0.40        0.34        0.00


     number of scf cycles    =   8
     number of bfgs steps    =   6

     enthalpy old            =     -91.1574041295 Ry
     enthalpy new            =     -91.1574094668 Ry

     CASE: enthalpy_new < enthalpy_old

     new trust radius        =       0.0046266535 bohr
     new conv_thr            =            1.0E-10 Ry

     new unit-cell volume =    567.94814 a.u.^3 (    84.16123 Ang^3 )
     density =      1.89412 g/cm^3

CELL_PARAMETERS (bohr)
  10.478572623  -0.458007918   0.165968764
  -0.208361368  11.624469744   0.141015803
   0.060930918   0.063558779   4.668100004

ATOMIC_POSITIONS (crystal)
C             0.2305466442        0.2680734539        0.6702434094
C             0.1470473448        0.3516255226        0.1702526055
C             0.3970914549        0.1016512538        0.6704368414
C             0.8972225810        0.6018120028        0.6704528079
C             0.7307306483        0.7682807452        0.6702439714
C             0.4806443649        1.0181833802        0.1704412528
C             0.9806986088        0.5182335657        0.1704563702
C             0.6472093531        0.8517860757        0.1702267413



     Writing output data file ./pp.save/
     NEW-OLD atomic charge density approx. for the potential
     extrapolated charge   31.96823, renormalised to   32.00000

     total cpu time spent up to now is       59.8 secs

     Self-consistent Calculation

     iteration #  1     ecut=    40.00 Ry     beta= 0.50
     Davidson diagonalization with overlap
     ethr =  1.00E-06,  avg # of iterations =  2.0

     Threshold (ethr) on eigenvalues was too large:
     Diagonalizing with lowered threshold

     Davidson diagonalization with overlap
     ethr =  4.15E-08,  avg # of iterations =  1.6

     total cpu time spent up to now is       62.6 secs

     total energy              =     -91.15742634 Ry
     Harris-Foulkes estimate   =     -91.20030683 Ry
     estimated scf accuracy    <       0.00001339 Ry

     iteration #  2     ecut=    40.00 Ry     beta= 0.50
     Davidson diagonalization with overlap
     ethr =  4.18E-08,  avg # of iterations =  3.0

     total cpu time spent up to now is       64.6 secs

     total energy              =     -91.15745703 Ry
     Harris-Foulkes estimate   =     -91.15746037 Ry
     estimated scf accuracy    <       0.00001029 Ry

     iteration #  3     ecut=    40.00 Ry     beta= 0.50
     Davidson diagonalization with overlap
     ethr =  3.22E-08,  avg # of iterations =  1.0

     total cpu time spent up to now is       65.8 secs

     total energy              =     -91.15745479 Ry
     Harris-Foulkes estimate   =     -91.15745735 Ry
     estimated scf accuracy    <       0.00000379 Ry

     iteration #  4     ecut=    40.00 Ry     beta= 0.50
     Davidson diagonalization with overlap
     ethr =  1.19E-08,  avg # of iterations =  2.0

     total cpu time spent up to now is       67.5 secs

     total energy              =     -91.15745568 Ry
     Harris-Foulkes estimate   =     -91.15745579 Ry
     estimated scf accuracy    <       0.00000026 Ry

     iteration #  5     ecut=    40.00 Ry     beta= 0.50
     Davidson diagonalization with overlap
     ethr =  8.13E-10,  avg # of iterations =  1.8

     total cpu time spent up to now is       69.0 secs

     total energy              =     -91.15745568 Ry
     Harris-Foulkes estimate   =     -91.15745570 Ry
     estimated scf accuracy    <       0.00000005 Ry

     iteration #  6     ecut=    40.00 Ry     beta= 0.50
     Davidson diagonalization with overlap
     ethr =  1.63E-10,  avg # of iterations =  1.2

     total cpu time spent up to now is       70.4 secs

     total energy              =     -91.15745567 Ry
     Harris-Foulkes estimate   =     -91.15745568 Ry
     estimated scf accuracy    <       0.00000002 Ry

     iteration #  7     ecut=    40.00 Ry     beta= 0.50
     Davidson diagonalization with overlap
     ethr =  5.10E-11,  avg # of iterations =  2.0

     total cpu time spent up to now is       72.1 secs

     total energy              =     -91.15745567 Ry
     Harris-Foulkes estimate   =     -91.15745567 Ry
     estimated scf accuracy    <          8.0E-10 Ry

     iteration #  8     ecut=    40.00 Ry     beta= 0.50
     Davidson diagonalization with overlap
     ethr =  2.51E-12,  avg # of iterations =  2.1

     total cpu time spent up to now is       73.9 secs

     End of self-consistent calculation

          k = 0.0000 0.0000 0.0000 (  2451 PWs)   bands (ev):

   -14.3140 -12.7843 -12.7841  -9.0364  -8.0326  -2.1897  -2.1895  -1.9945
    -1.2116  -0.9646  -0.9645   0.1743   0.1745   2.1708   2.2024   3.1060
     7.1760   8.5265  12.3306  12.3308

          k =-0.0074-0.0056 0.4513 (  2440 PWs)   bands (ev):

   -13.6087 -12.0971 -12.0957  -8.4294  -7.4837  -3.6321  -2.9445  -2.9431
    -1.3506  -1.3504  -1.1732  -0.1604  -0.1461  -0.0678   0.7446   3.9554
     6.7235   9.4410  11.0614  11.0698

          k =-0.0148-0.0112 0.9026 (  2434 PWs)   bands (ev):

   -11.5343 -10.0971 -10.0947  -8.3631  -6.6566  -6.6540  -6.6233  -4.9554
    -3.7019  -2.2598  -1.2398  -1.2381   1.1671   1.9434   1.9681   4.4121
     6.4385   7.5356   7.5647  10.2726

          k =-0.0199-0.4533 0.0064 (  2434 PWs)   bands (ev):

[...]
C             0.4809011504        1.0182448872        0.1692958998
C             0.9803196630        0.5180687716        0.1712370960
C             0.6468209649        0.8517025576        0.1704536498



     Writing output data file ./pp.save/
     NEW-OLD atomic charge density approx. for the potential
     extrapolated charge   31.93844, renormalised to   32.00000

     total cpu time spent up to now is     1958.9 secs

     Self-consistent Calculation

     iteration #  1     ecut=    40.00 Ry     beta= 0.50
     Davidson diagonalization with overlap
     ethr =  1.00E-06,  avg # of iterations =  4.2

     total cpu time spent up to now is     1978.0 secs

     total energy              =     -91.15898084 Ry
     Harris-Foulkes estimate   =     -91.23406559 Ry
     estimated scf accuracy    <       0.00008801 Ry

     iteration #  2     ecut=    40.00 Ry     beta= 0.50
     Davidson diagonalization with overlap
     ethr =  2.75E-07,  avg # of iterations =  2.9

     total cpu time spent up to now is     1991.1 secs

     total energy              =     -91.15909586 Ry
     Harris-Foulkes estimate   =     -91.15910868 Ry
     estimated scf accuracy    <       0.00004269 Ry

     iteration #  3     ecut=    40.00 Ry     beta= 0.50
     Davidson diagonalization with overlap
     ethr =  1.33E-07,  avg # of iterations =  1.0

     total cpu time spent up to now is     1998.5 secs

     total energy              =     -91.15909123 Ry
     Harris-Foulkes estimate   =     -91.15909755 Ry
     estimated scf accuracy    <       0.00001334 Ry

     iteration #  4     ecut=    40.00 Ry     beta= 0.50
     Davidson diagonalization with overlap
     ethr =  4.17E-08,  avg # of iterations =  2.0

     total cpu time spent up to now is     2009.3 secs

     total energy              =     -91.15909383 Ry
     Harris-Foulkes estimate   =     -91.15909399 Ry
     estimated scf accuracy    <       0.00000054 Ry

     iteration #  5     ecut=    40.00 Ry     beta= 0.50
     Davidson diagonalization with overlap
     ethr =  1.70E-09,  avg # of iterations =  2.7

     total cpu time spent up to now is     2020.6 secs

     total energy              =     -91.15909381 Ry
     Harris-Foulkes estimate   =     -91.15909390 Ry
     estimated scf accuracy    <       0.00000019 Ry

     iteration #  6     ecut=    40.00 Ry     beta= 0.50
     Davidson diagonalization with overlap
     ethr =  6.05E-10,  avg # of iterations =  2.0

     total cpu time spent up to now is     2030.6 secs

     total energy              =     -91.15909383 Ry
     Harris-Foulkes estimate   =     -91.15909383 Ry
     estimated scf accuracy    <          5.8E-09 Ry

     iteration #  7     ecut=    40.00 Ry     beta= 0.50
     Davidson diagonalization with overlap
     ethr =  1.80E-11,  avg # of iterations =  2.7

     total cpu time spent up to now is     2042.9 secs

     total energy              =     -91.15909383 Ry
     Harris-Foulkes estimate   =     -91.15909383 Ry
     estimated scf accuracy    <          3.5E-09 Ry

     iteration #  8     ecut=    40.00 Ry     beta= 0.50
     Davidson diagonalization with overlap
     ethr =  1.11E-11,  avg # of iterations =  2.0

     total cpu time spent up to now is     2053.9 secs

     End of self-consistent calculation

          k = 0.0000 0.0000 0.0000 (  2451 PWs)   bands (ev):

   -14.0872 -12.5534 -12.5499  -8.7872  -7.7793  -1.9735  -1.9697  -1.6966
    -0.9677  -0.6931  -0.6893   0.3988   0.4017   2.4070   2.4355   3.1333
     7.0912   8.8546  12.7465  12.7487

          k =-0.0683-0.0449 0.4708 (  2440 PWs)   bands (ev):

   -13.3723 -11.8859 -11.8531  -8.1818  -7.2294  -3.3759  -2.7322  -2.7208
    -1.1362  -1.1222  -0.9838   0.0176   0.1666   0.3432   0.9843   3.9818
     6.6867  10.1055  11.5156  11.5237

          k =-0.1367-0.0898 0.9416 (  2434 PWs)   bands (ev):

   -11.2781  -9.9013  -9.8598  -8.0952  -6.4597  -6.4294  -6.3789  -4.7079
    -3.4627  -2.0165  -1.0159  -1.0037   1.1417   2.1909   2.6324   4.2986
     6.4942   7.9252   8.3079  10.3636

          k =-0.0158-0.4195 0.0475 (  2434 PWs)   bands (ev):

   -13.6966 -13.6871 -10.7644 -10.7559  -5.2599  -5.2493  -1.5546  -1.5439
    -0.6120  -0.6020   1.0317   1.0387   1.2694   1.2756   1.7168   1.7222
     9.4164   9.4222  10.2978  10.3058

          k =-0.0841-0.4644 0.5183 (  2432 PWs)   bands (ev):

   -13.0105 -12.9633 -10.1166 -10.0983  -4.9591  -4.9401  -2.8966  -2.8872
    -1.0175  -1.0102  -1.0047  -0.5070   0.7572   0.7699   2.0438   2.1829
     8.7048   8.8266  10.4008  12.3757

          k =-0.1525-0.5093 0.9891 (  2427 PWs)   bands (ev):

   -10.9501 -10.8892  -8.4231  -8.4095  -7.2760  -7.2435  -4.8819  -4.8699
    -2.9155  -2.9043  -0.9414  -0.9327   1.1613   1.7925   3.6370   3.6957
     6.7940   6.9819   9.5768   9.6515

          k =-0.5493-0.0038 0.0699 (  2436 PWs)   bands (ev):

   -13.6650 -13.6547 -10.8253 -10.8170  -5.2252  -5.2145  -1.8750  -1.8700
    -0.6160  -0.6061   1.0290   1.0357   1.7228   1.7282   1.8767   1.8844
     9.0892   9.0962  11.7554  11.7653

          k =-0.6176-0.0487 0.5407 (  2429 PWs)   bands (ev):

   -12.9877 -12.9392 -10.1597 -10.1437  -4.9363  -4.9244  -2.9044  -2.8882
    -1.2292  -1.0030  -0.9914  -0.7674   0.7551   0.7627   2.4818   2.6458
     8.5551   8.6785  11.3159  13.4557

          k =-0.6859-0.0936 1.0115 (  2422 PWs)   bands (ev):

   -10.9460 -10.8833  -8.4318  -8.4205  -7.2756  -7.2594  -4.8678  -4.8520
    -2.9132  -2.8984  -0.9473  -0.9373   1.1129   1.7269   3.7428   3.7857
     6.8617   7.0737   9.4070   9.4682

          k =-0.5650-0.4233 0.1174 (  2434 PWs)   bands (ev):

   -14.0015 -12.6077 -12.6039  -8.7871  -7.7803  -2.5597  -1.9555  -1.9517
    -0.9788  -0.1330  -0.1315   0.4054   0.4083   2.4033   2.4348   3.1313
     7.1286  11.1571  11.1619  12.6199

          k =-0.6334-0.4682 0.5882 (  2427 PWs)   bands (ev):

   -13.3097 -11.9256 -11.8922  -8.1817  -7.2325  -3.3999  -2.7131  -2.7056
    -1.6237  -1.1218  -1.1162   0.1665   0.4089   0.7715   0.9826   3.9800
     6.8071  11.3028  11.3083  11.6616

          k =-0.7017-0.5131 1.0590 (  2442 PWs)   bands (ev):

   -11.2653  -9.9106  -9.8652  -8.1186  -6.4416  -6.4184  -6.3789  -4.7088
    -3.4627  -2.0165  -1.0132  -1.0061   1.0077   2.2490   2.6843   4.5255
     6.4963   7.7724   8.1594  10.3654

     the Fermi energy is     4.7244 ev

!    total energy              =     -91.15909383 Ry
     Harris-Foulkes estimate   =     -91.15909383 Ry
     estimated scf accuracy    <          3.9E-11 Ry

     The total energy is the sum of the following terms:

     one-electron contribution =     -47.63922133 Ry
     hartree contribution      =      37.70403589 Ry
     xc contribution           =     -27.95952742 Ry
     ewald contribution        =     -53.26518567 Ry
     smearing contrib. (-TS)   =       0.00080470 Ry

     convergence has been achieved in   8 iterations

     Forces acting on atoms (cartesian axes, Ry/au):

     atom    1 type  1   force =     0.00058269    0.00121169   -0.00188258
     atom    2 type  1   force =    -0.00217217    0.00029042    0.00109468
     atom    3 type  1   force =    -0.00049548    0.00021096    0.00161136
     atom    4 type  1   force =    -0.00275983   -0.00045124    0.00192877
     atom    5 type  1   force =     0.00309631   -0.00078367   -0.00190603
     atom    6 type  1   force =    -0.00108984    0.00132939    0.00042460
     atom    7 type  1   force =     0.00245284   -0.00009839   -0.00236938
     atom    8 type  1   force =     0.00038549   -0.00170917    0.00109857

     Total force =     0.007659     Total SCF correction =     0.000004


     Computing stress (Cartesian axis) and pressure

          total   stress  (Ry/bohr**3)                   (kbar)     P=        0.92
   0.00000574   0.00000225  -0.00000313            0.84        0.33       -0.46
   0.00000225  -0.00000924   0.00001666            0.33       -1.36        2.45
  -0.00000313   0.00001666   0.00002227           -0.46        2.45        3.28


     number of scf cycles    =  45
     number of bfgs steps    =  43

     enthalpy old            =     -91.1590044210 Ry
     enthalpy new            =     -91.1590561620 Ry

     CASE: enthalpy_new < enthalpy_old

     new trust radius        =       0.0461907527 bohr
     new conv_thr            =            1.0E-10 Ry

     new unit-cell volume =    552.90879 a.u.^3 (    81.93263 Ang^3 )
     density =      1.94564 g/cm^3

CELL_PARAMETERS (bohr)
   9.836478937  -0.231288990   1.425674353
   0.040024964  12.589377398   1.245874999
   0.591592352   0.515344729   4.602416506

ATOMIC_POSITIONS (crystal)
C             0.2316875983        0.2685742731        0.6698958663
C             0.1483152565        0.3522432511        0.1696741524
C             0.3982205089        0.1021866149        0.6681042220
C             0.8966296962        0.6015237521        0.6713533578
C             0.7289076111        0.7674574124        0.6722107239
C             0.4811506515        1.0183974775        0.1687144564
C             0.9800011853        0.5178677115        0.1717386140
C             0.6462784922        0.8513955075        0.1710626070



     Writing output data file ./pp.save/
     NEW-OLD atomic charge density approx. for the potential
     extrapolated charge   31.92751, renormalised to   32.00000

     total cpu time spent up to now is     2054.3 secs

     Self-consistent Calculation

     iteration #  1     ecut=    40.00 Ry     beta= 0.50
     Davidson diagonalization with overlap
     ethr =  1.00E-06,  avg # of iterations =  5.2

     total cpu time spent up to now is     2076.1 secs

     total energy              =     -91.15900323 Ry
     Harris-Foulkes estimate   =     -91.24655606 Ry
     estimated scf accuracy    <       0.00015033 Ry

     iteration #  2     ecut=    40.00 Ry     beta= 0.50
     Davidson diagonalization with overlap
     ethr =  4.70E-07,  avg # of iterations =  2.7

     total cpu time spent up to now is     2089.3 secs

     total energy              =     -91.15916442 Ry
     Harris-Foulkes estimate   =     -91.15918222 Ry
     estimated scf accuracy    <       0.00006333 Ry

     iteration #  3     ecut=    40.00 Ry     beta= 0.50
     Davidson diagonalization with overlap
     ethr =  1.98E-07,  avg # of iterations =  1.0

     total cpu time spent up to now is     2097.2 secs

     total energy              =     -91.15916009 Ry
     Harris-Foulkes estimate   =     -91.15916715 Ry
     estimated scf accuracy    <       0.00001863 Ry

     iteration #  4     ecut=    40.00 Ry     beta= 0.50
     Davidson diagonalization with overlap
     ethr =  5.82E-08,  avg # of iterations =  2.0

     total cpu time spent up to now is     2108.4 secs

     total energy              =     -91.15916345 Ry
     Harris-Foulkes estimate   =     -91.15916372 Ry
     estimated scf accuracy    <       0.00000104 Ry

     iteration #  5     ecut=    40.00 Ry     beta= 0.50
     Davidson diagonalization with overlap
     ethr =  3.26E-09,  avg # of iterations =  2.3

     total cpu time spent up to now is     2119.3 secs

     total energy              =     -91.15916344 Ry
     Harris-Foulkes estimate   =     -91.15916361 Ry
     estimated scf accuracy    <       0.00000034 Ry

     iteration #  6     ecut=    40.00 Ry     beta= 0.50
     Davidson diagonalization with overlap
     ethr =  1.07E-09,  avg # of iterations =  2.0

     total cpu time spent up to now is     2129.7 secs

     total energy              =     -91.15916349 Ry
     Harris-Foulkes estimate   =     -91.15916349 Ry
     estimated scf accuracy    <          6.4E-09 Ry

     iteration #  7     ecut=    40.00 Ry     beta= 0.50
     Davidson diagonalization with overlap
     ethr =  1.99E-11,  avg # of iterations =  3.0

     total cpu time spent up to now is     2143.5 secs

     total energy              =     -91.15916349 Ry
     Harris-Foulkes estimate   =     -91.15916349 Ry
     estimated scf accuracy    <          3.3E-09 Ry

     iteration #  8     ecut=    40.00 Ry     beta= 0.50
     Davidson diagonalization with overlap
     ethr =  1.02E-11,  avg # of iterations =  2.0

     total cpu time spent up to now is     2154.6 secs

     total energy              =     -91.15916349 Ry
     Harris-Foulkes estimate   =     -91.15916349 Ry
     estimated scf accuracy    <          1.4E-10 Ry

     iteration #  9     ecut=    40.00 Ry     beta= 0.50
     Davidson diagonalization with overlap
     ethr =  4.29E-13,  avg # of iterations =  2.0

     total cpu time spent up to now is     2165.7 secs

     End of self-consistent calculation

          k = 0.0000 0.0000 0.0000 (  2451 PWs)   bands (ev):

   -14.0655 -12.5288 -12.5258  -8.7689  -7.7592  -1.9512  -1.9482  -1.6673
    -0.9445  -0.6868  -0.6839   0.4218   0.4243   2.4279   2.4582   3.1816
     7.1478   8.8863  12.7587  12.7619

          k =-0.0695-0.0465 0.4717 (  2440 PWs)   bands (ev):

   -13.3500 -11.8621 -11.8297  -8.1626  -7.2085  -3.3524  -2.7097  -2.6996
    -1.1151  -1.0997  -0.9606   0.0333   0.1894   0.3520   1.0063   4.0225
     6.7235  10.1532  11.5275  11.5557

          k =-0.1389-0.0929 0.9434 (  2434 PWs)   bands (ev):

   -11.2545  -9.8786  -9.8383  -8.0712  -6.4376  -6.4086  -6.3578  -4.6857
    -3.4403  -1.9939  -0.9951  -0.9816   1.1544   2.2240   2.6527   4.3110
     6.5190   7.9711   8.3289  10.3746

          k =-0.0171-0.4230 0.0496 (  2434 PWs)   bands (ev):

   -13.6746 -13.6627 -10.7430 -10.7339  -5.2408  -5.2279  -1.5447  -1.5244
    -0.5916  -0.5763   1.0535   1.0597   1.2973   1.3021   1.7399   1.7444
     9.4510   9.4579  10.3655  10.3896

          k =-0.0866-0.4695 0.5213 (  2432 PWs)   bands (ev):

   -12.9887 -12.9387 -10.0967 -10.0750  -4.9380  -4.9191  -2.8761  -2.8624
    -0.9997  -0.9945  -0.9876  -0.4811   0.7791   0.7916   2.0561   2.2274
     8.7444   8.8402  10.4397  12.4910

          k =-0.1560-0.5160 0.9930 (  2427 PWs)   bands (ev):

   -10.9284 -10.8647  -8.4028  -8.3861  -7.2536  -7.2208  -4.8610  -4.8475
    -2.8941  -2.8821  -0.9198  -0.9103   1.1712   1.8194   3.6734   3.7095
     6.8321   6.9925   9.5887   9.6901

          k =-0.5456-0.0053 0.0707 (  2436 PWs)   bands (ev):

   -13.6451 -13.6306 -10.8031 -10.7944  -5.2037  -5.1907  -1.8440  -1.8429
    -0.5953  -0.5803   1.0493   1.0550   1.7457   1.7502   1.8907   1.9002
     9.0973   9.1016  11.7441  11.7760

          k =-0.6151-0.0517 0.5424 (  2429 PWs)   bands (ev):

   -12.9672 -12.9156 -10.1386 -10.1196  -4.9148  -4.9013  -2.8824  -2.8643
    -1.2100  -0.9806  -0.9693  -0.7282   0.7762   0.7831   2.4785   2.6785
     8.5827   8.6810  11.2954  13.4812

          k =-0.6845-0.0982 1.0141 (  2422 PWs)   bands (ev):

   -10.9252 -10.8596  -8.4091  -8.3976  -7.2531  -7.2367  -4.8460  -4.8284
    -2.8916  -2.8771  -0.9262  -0.9161   1.1311   1.7631   3.7716   3.7911
     6.8948   7.0821   9.4137   9.4980

          k =-0.5627-0.4283 0.1203 (  2434 PWs)   bands (ev):

   -13.9778 -12.5868 -12.5837  -8.7631  -7.7556  -2.5430  -1.9353  -1.9320
    -0.9555  -0.0922  -0.0908   0.4287   0.4312   2.4241   2.4567   3.1256
     7.1138  11.1439  11.1472  12.6495

          k =-0.6322-0.4748 0.5920 (  2427 PWs)   bands (ev):

   -13.2867 -11.9041 -11.8711  -8.1585  -7.2086  -3.3773  -2.6912  -2.6823
    -1.6021  -1.1000  -1.0954   0.1878   0.4444   0.8007   1.0040   3.9809
     6.8137  11.3161  11.3334  11.6869

          k =-0.7016-0.5212 1.0637 (  2442 PWs)   bands (ev):

   -11.2434  -9.8872  -9.8428  -8.0969  -6.4172  -6.3955  -6.3571  -4.6862
    -3.4418  -1.9950  -0.9925  -0.9844   1.0391   2.2727   2.6933   4.5573
     6.5138   7.7935   8.1544  10.3959

     the Fermi energy is     4.7599 ev

!    total energy              =     -91.15916349 Ry
     Harris-Foulkes estimate   =     -91.15916349 Ry
     estimated scf accuracy    <          2.0E-11 Ry

     The total energy is the sum of the following terms:

     one-electron contribution =     -47.19602607 Ry
     hartree contribution      =      37.50799467 Ry
     xc contribution           =     -27.95879603 Ry
     ewald contribution        =     -53.51310762 Ry
     smearing contrib. (-TS)   =       0.00077155 Ry

     convergence has been achieved in   9 iterations

     Forces acting on atoms (cartesian axes, Ry/au):

     atom    1 type  1   force =     0.00000873    0.00147691   -0.00216602
     atom    2 type  1   force =    -0.00256910    0.00017538    0.00133806
     atom    3 type  1   force =    -0.00054381    0.00049305    0.00239706
     atom    4 type  1   force =    -0.00248382   -0.00080467    0.00125794
     atom    5 type  1   force =     0.00354939   -0.00101286   -0.00206476
     atom    6 type  1   force =    -0.00107086    0.00114941    0.00050501
     atom    7 type  1   force =     0.00272549    0.00016703   -0.00217746
     atom    8 type  1   force =     0.00038399   -0.00164426    0.00091016

     Total force =     0.008153     Total SCF correction =     0.000005


     Computing stress (Cartesian axis) and pressure

          total   stress  (Ry/bohr**3)                   (kbar)     P=        0.61
   0.00000173   0.00000585  -0.00000352            0.25        0.86       -0.52
   0.00000585  -0.00001237   0.00001597            0.86       -1.82        2.35
  -0.00000352   0.00001597   0.00002319           -0.52        2.35        3.41


     number of scf cycles    =  46
     number of bfgs steps    =  44

     enthalpy old            =     -91.1590561620 Ry
     enthalpy new            =     -91.1591259059 Ry

     CASE: enthalpy_new < enthalpy_old

     new trust radius        =       0.0698864412 bohr
     new conv_thr            =            1.0E-10 Ry

     new unit-cell volume =    551.86572 a.u.^3 (    81.77806 Ang^3 )
     density =      1.94932 g/cm^3

CELL_PARAMETERS (bohr)
   9.960782724  -0.261091499   1.457670405
   0.003278843  12.437376774   1.277401176
   0.601271703   0.535912752   4.599223832

ATOMIC_POSITIONS (crystal)
C             0.2329601880        0.2693858086        0.6684362747
C             0.1491438767        0.3527897165        0.1688046656
C             0.3991067818        0.1027316937        0.6670751551
C             0.8954655070        0.6008459821        0.6725948192
C             0.7279029961        0.7667554549        0.6734207708
C             0.4814644838        1.0186138107        0.1680294293
C             0.9796388201        0.5176050860        0.1724397846
C             0.6455083465        0.8509184475        0.1719531007



     Writing output data file ./pp.save/
     NEW-OLD atomic charge density approx. for the potential
     extrapolated charge   31.93952, renormalised to   32.00000

     total cpu time spent up to now is     2166.2 secs

     Self-consistent Calculation

     iteration #  1     ecut=    40.00 Ry     beta= 0.50
     Davidson diagonalization with overlap
     ethr =  1.00E-06,  avg # of iterations =  5.6

     total cpu time spent up to now is     2191.2 secs

     total energy              =     -91.15911015 Ry
     Harris-Foulkes estimate   =     -91.23149124 Ry
     estimated scf accuracy    <       0.00023522 Ry

     iteration #  2     ecut=    40.00 Ry     beta= 0.50
     Davidson diagonalization with overlap
     ethr =  7.35E-07,  avg # of iterations =  2.2

     total cpu time spent up to now is     2203.8 secs

     total energy              =     -91.15923737 Ry
     Harris-Foulkes estimate   =     -91.15924826 Ry
     estimated scf accuracy    <       0.00006394 Ry

     iteration #  3     ecut=    40.00 Ry     beta= 0.50
     Davidson diagonalization with overlap
     ethr =  2.00E-07,  avg # of iterations =  1.6

     total cpu time spent up to now is     2213.4 secs

     total energy              =     -91.15924091 Ry
     Harris-Foulkes estimate   =     -91.15924091 Ry
     estimated scf accuracy    <       0.00001473 Ry

     iteration #  4     ecut=    40.00 Ry     beta= 0.50
     Davidson diagonalization with overlap
