
     Program PWSCF v.6.5 starts on  9Jul2022 at 22: 4: 1 

     This program is part of the open-source Quantum ESPRESSO suite
     for quantum simulation of materials; please cite
         "P. Giannozzi et al., J. Phys.:Condens. Matter 21 395502 (2009);
         "P. Giannozzi et al., J. Phys.:Condens. Matter 29 465901 (2017);
          URL http://www.quantum-espresso.org", 
     in publications or presentations arising from this work. More details at
     http://www.quantum-espresso.org/quote

     Parallel version (MPI), running on    96 processors

     MPI processes distributed on     2 nodes
     R & G space division:  proc/nbgrp/npool/nimage =      96
     Waiting for input...
     Reading input from standard input
     Message from routine read_cards :
     DEPRECATED: no units specified in CELL_PARAMETERS card

     Current dimensions of program PWSCF are:
     Max number of different atomic species (ntypx) = 10
     Max number of k-points (npk) =  40000
     Max angular momentum in pseudopotentials (lmaxx) =  3

     Subspace diagonalization in iterative solution of the eigenvalue problem:
     one sub-group per band group will be used
     scalapack distributed-memory algorithm (size of sub-group:  9*  9 procs)

 
     Parallelization info
     --------------------
     sticks:   dense  smooth     PW     G-vecs:    dense   smooth      PW
     Min          15      15      4                  195      195      32
     Max          16      16      5                  198      198      35
     Sum        1515    1515    463                18889    18889    3189
 


     bravais-lattice index     =            0
     lattice parameter (alat)  =      16.2499  a.u.
     unit-cell volume          =     553.0126 (a.u.)^3
     number of atoms/cell      =            8
     number of atomic types    =            1
     number of electrons       =        32.00
     number of Kohn-Sham states=           20
     kinetic-energy cutoff     =      40.0000  Ry
     charge density cutoff     =     160.0000  Ry
     convergence threshold     =      1.0E-08
     mixing beta               =       0.5000
     number of iterations used =            8  plain     mixing
     Exchange-correlation=  SLA  PW   PBE  PBE
                           (   1   4   3   4   0   0   0)
     nstep                     =          250


     celldm(1)=  16.249917  celldm(2)=   0.000000  celldm(3)=   0.000000
     celldm(4)=   0.000000  celldm(5)=   0.000000  celldm(6)=   0.000000

     crystal axes: (cart. coord. in units of alat)
               a(1) = (   0.995107   0.098807   0.000123 )  
               a(2) = (   0.067890   0.458753   0.000222 )  
               a(3) = (   0.000025   0.000006   0.286525 )  

     reciprocal axes: (cart. coord. in units 2 pi/alat)
               b(1) = (  1.019904 -0.150933 -0.000084 )  
               b(2) = ( -0.219668  2.212330 -0.000029 )  
               b(3) = ( -0.000268 -0.001646  3.490102 )  


     PseudoPot. # 1 for C  read from file:
     ./C.pbe-van_bm.upf
     MD5 check sum: 1a69bf6b8db32088f5b2163dbdb77a27
     Pseudo is Ultrasoft, Zval =  4.0
     Generated by new atomic code, or converted to UPF format
     Using radial grid of  721 points,  4 beta functions with: 
                l(1) =   0
                l(2) =   0
                l(3) =   1
                l(4) =   1
     Q(r) pseudized with  8 coefficients,  rinner =    0.800   0.800   0.800


     atomic species   valence    mass     pseudopotential
        C              4.00    12.00000     C ( 1.00)

     No symmetry found



   Cartesian axes

     site n.     atom                  positions (alat units)
         1           C   tau(   1) = (   0.3236570   0.2632915   0.0204891  )
         2           C   tau(   2) = (   0.4786565   0.2029377   0.0204709  )
         3           C   tau(   3) = (   0.2469258   0.2931025   0.1637630  )
         4           C   tau(   4) = (   0.5554132   0.1731451   0.1637161  )
         5           C   tau(   5) = (   0.7872773   0.0833447   0.0204098  )
         6           C   tau(   6) = (   0.0918086   0.3531251   0.1637576  )
         7           C   tau(   7) = (   1.0101525   0.4817431   0.0206314  )
         8           C   tau(   8) = (   0.7105365   0.1131439   0.1636911  )

     number of k points=    16  Marzari-Vanderbilt smearing, width (Ry)=  0.0200
                       cart. coord. in units 2pi/alat
        k(    1) = (   0.0000000   0.0000000   0.0000000), wk =   0.0666667
        k(    2) = (  -0.0000537  -0.0003291   0.6980205), wk =   0.1333333
        k(    3) = (  -0.0001073  -0.0006583   1.3960410), wk =   0.1333333
        k(    4) = (  -0.0732226   0.7374432  -0.0000095), wk =   0.1333333
        k(    5) = (  -0.0732763   0.7371141   0.6980109), wk =   0.1333333
        k(    6) = (  -0.0733299   0.7367849   1.3960314), wk =   0.1333333
        k(    7) = (  -0.0731153   0.7381015  -1.3960505), wk =   0.1333333
        k(    8) = (  -0.0731690   0.7377724  -0.6980300), wk =   0.1333333
        k(    9) = (  -0.5099520   0.0754663   0.0000422), wk =   0.0666667
        k(   10) = (  -0.5100056   0.0751372   0.6980627), wk =   0.1333333
        k(   11) = (  -0.5100593   0.0748080   1.3960832), wk =   0.1333333
        k(   12) = (  -0.5831746   0.8129096   0.0000326), wk =   0.1333333
        k(   13) = (  -0.5832282   0.8125804   0.6980531), wk =   0.1333333
        k(   14) = (  -0.5832819   0.8122513   1.3960736), wk =   0.1333333
        k(   15) = (  -0.5830673   0.8135679  -1.3960083), wk =   0.1333333
        k(   16) = (  -0.5831209   0.8132387  -0.6979878), wk =   0.1333333

     Dense  grid:    18889 G-vectors     FFT dimensions: (  72,  32,  20)

     Estimated max dynamical RAM per process >       1.72 MB

     Estimated total dynamical RAM >     164.88 MB

     Initial potential from superposition of free atoms

     starting charge   31.99968, renormalised to   32.00000
     Starting wfcs are   32 randomized atomic wfcs

     total cpu time spent up to now is        0.7 secs

     Self-consistent Calculation

     iteration #  1     ecut=    40.00 Ry     beta= 0.50
     Davidson diagonalization with overlap
     ethr =  1.00E-02,  avg # of iterations =  2.4

     total cpu time spent up to now is        1.7 secs

     total energy              =     -91.11668033 Ry
     Harris-Foulkes estimate   =     -91.49774549 Ry
     estimated scf accuracy    <       0.78055884 Ry

     iteration #  2     ecut=    40.00 Ry     beta= 0.50
     Davidson diagonalization with overlap
     ethr =  2.44E-03,  avg # of iterations =  2.1

     total cpu time spent up to now is        2.5 secs

     total energy              =     -91.14582305 Ry
     Harris-Foulkes estimate   =     -91.17844589 Ry
     estimated scf accuracy    <       0.07211373 Ry

     iteration #  3     ecut=    40.00 Ry     beta= 0.50
     Davidson diagonalization with overlap
     ethr =  2.25E-04,  avg # of iterations =  3.4

     total cpu time spent up to now is        3.5 secs

     total energy              =     -91.15728812 Ry
     Harris-Foulkes estimate   =     -91.15729703 Ry
     estimated scf accuracy    <       0.00203925 Ry

     iteration #  4     ecut=    40.00 Ry     beta= 0.50
     Davidson diagonalization with overlap
     ethr =  6.37E-06,  avg # of iterations =  4.6

     total cpu time spent up to now is        4.7 secs

     total energy              =     -91.15747504 Ry
     Harris-Foulkes estimate   =     -91.15754854 Ry
     estimated scf accuracy    <       0.00018704 Ry

     iteration #  5     ecut=    40.00 Ry     beta= 0.50
     Davidson diagonalization with overlap
     ethr =  5.84E-07,  avg # of iterations =  3.5

     total cpu time spent up to now is        5.8 secs

     total energy              =     -91.15750710 Ry
     Harris-Foulkes estimate   =     -91.15751804 Ry
     estimated scf accuracy    <       0.00003785 Ry

     iteration #  6     ecut=    40.00 Ry     beta= 0.50
     Davidson diagonalization with overlap
     ethr =  1.18E-07,  avg # of iterations =  2.0

     total cpu time spent up to now is        6.5 secs

     total energy              =     -91.15751262 Ry
     Harris-Foulkes estimate   =     -91.15751354 Ry
     estimated scf accuracy    <       0.00000228 Ry

     iteration #  7     ecut=    40.00 Ry     beta= 0.50
     Davidson diagonalization with overlap
     ethr =  7.14E-09,  avg # of iterations =  2.2

     total cpu time spent up to now is        7.3 secs

     total energy              =     -91.15751313 Ry
     Harris-Foulkes estimate   =     -91.15751313 Ry
     estimated scf accuracy    <       0.00000005 Ry

     iteration #  8     ecut=    40.00 Ry     beta= 0.50
     Davidson diagonalization with overlap
     ethr =  1.48E-10,  avg # of iterations =  2.9

     total cpu time spent up to now is        8.3 secs

     End of self-consistent calculation

          k = 0.0000 0.0000 0.0000 (  2343 PWs)   bands (ev):

   -14.0785 -12.6052 -12.6050  -8.8528  -7.7103  -1.9196  -1.9192  -1.6813
    -0.9560  -0.0898  -0.0884   0.3973   0.3975   2.3704   2.5176   3.1459
     7.3331   8.8769  11.0432  11.0476

          k =-0.0001-0.0003 0.6980 (  2367 PWs)   bands (ev):

   -13.3695 -11.9108 -11.9106  -8.2465  -7.1488  -3.3910  -2.6744  -2.6733
    -1.1398  -1.1387  -0.8538   0.1068   0.7032   0.7047   1.0902   4.0048
     6.9683   9.7888  11.5237  11.5262

          k =-0.0001-0.0007 1.3960 (  2388 PWs)   bands (ev):

   -11.2829  -9.8876  -9.8874  -8.0762  -6.4429  -6.4424  -6.4418  -4.6672
    -3.5229  -1.9312  -0.9945  -0.9941   1.5029   2.7393   2.7413   4.7527
     6.5186   8.3015   8.3036  10.4065

          k =-0.0732 0.7374-0.0000 (  2376 PWs)   bands (ev):

   -13.8591 -13.3491 -11.4705 -10.0397  -6.2514  -4.1216  -2.0748  -1.6927
    -0.7874  -0.3182   0.1837   0.9550   1.2643   1.8529   1.9727   2.0435
     8.4455  10.2470  11.3697  12.9751

          k =-0.0733 0.7371 0.6980 (  2357 PWs)   bands (ev):

   -13.1542 -12.6495 -10.7930  -9.3940  -5.8011  -4.0274  -3.1691  -2.4678
    -1.5417  -1.2310  -0.8530  -0.4713   0.2919   1.0503   1.7319   2.7676
     7.9867   9.5084  12.2006  13.0715

          k =-0.0733 0.7368 1.3960 (  2350 PWs)   bands (ev):

   -11.0801 -10.5955  -8.8799  -8.0744  -7.1106  -7.1010  -5.4433  -4.2755
    -3.6662  -2.1405  -1.2888  -0.6967   1.1669   1.4885   3.3614   3.9810
     6.5748   7.0750   9.0690   9.7901

          k =-0.0731 0.7381-1.3961 (  2348 PWs)   bands (ev):

   -11.0799 -10.5955  -8.8792  -8.0753  -7.1096  -7.1016  -5.4431  -4.2757
    -3.6664  -2.1402  -1.2886  -0.6968   1.1658   1.4873   3.3619   3.9808
     6.5765   7.0741   9.0710   9.7899

          k =-0.0732 0.7378-0.6980 (  2357 PWs)   bands (ev):

   -13.1541 -12.6495 -10.7928  -9.3941  -5.8006  -4.0284  -3.1696  -2.4670
    -1.5410  -1.2317  -0.8536  -0.4719   0.2910   1.0509   1.7316   2.7672
     7.9876   9.5083  12.2048  13.0727

          k =-0.5100 0.0755 0.0000 (  2356 PWs)   bands (ev):

   -13.7077 -13.7074 -10.8133 -10.8129  -5.2093  -5.2091  -1.2775  -1.2771
    -0.5978  -0.5971   1.1125   1.1131   1.6830   1.6840   1.7391   1.7397
     9.3334   9.3339   9.4262   9.4266

          k =-0.5100 0.0751 0.6981 (  2372 PWs)   bands (ev):

   -13.0018 -13.0014 -10.1480 -10.1475  -4.8960  -4.8953  -2.9089  -2.9080
    -0.9973  -0.9962  -0.4592  -0.4586   0.7892   0.7902   2.5110   2.5121
     8.8193   8.8201  10.3332  10.3341

          k =-0.5101 0.0748 1.3961 (  2364 PWs)   bands (ev):

   -10.9269 -10.9266  -8.3997  -8.3988  -7.2937  -7.2926  -4.8810  -4.8803
    -2.8924  -2.8920  -0.9065  -0.9060   1.8276   1.8284   3.9774   3.9794
     7.1204   7.1213   9.6762   9.6769

          k =-0.5832 0.8129 0.0000 (  2376 PWs)   bands (ev):

   -13.9691 -13.0186 -12.0178  -9.3398  -7.1417  -3.0471  -2.3391  -0.9327
    -0.9064  -0.8306  -0.1741   0.0123   0.8305   2.2838   2.3400   2.9045
     7.3802  11.7201  11.7529  11.9010

          k =-0.5832 0.8126 0.6981 (  2360 PWs)   bands (ev):

   -13.2639 -12.3209 -11.3337  -8.7138  -6.6166  -3.3193  -3.3043  -2.0820
    -1.8836  -1.4881  -0.3736  -0.1159  -0.0710   0.6362   1.1122   3.7381
     7.0026  10.6730  12.1317  12.6452

          k =-0.5833 0.8123 1.3961 (  2345 PWs)   bands (ev):

   -11.1882 -10.2772  -9.3598  -8.0328  -6.8181  -6.7035  -5.9401  -4.3227
    -3.7756  -1.6989  -1.4988  -0.7220   0.9502   2.0714   2.6628   4.3060
     6.4845   7.5519   8.2978  10.2732

          k =-0.5831 0.8136-1.3960 (  2346 PWs)   bands (ev):

   -11.1881 -10.2768  -9.3601  -8.0325  -6.8177  -6.7041  -5.9405  -4.3225
    -3.7756  -1.6991  -1.4990  -0.7218   0.9490   2.0708   2.6618   4.3075
     6.4837   7.5543   8.2973  10.2739

          k =-0.5831 0.8132-0.6980 (  2360 PWs)   bands (ev):

   -13.2639 -12.3208 -11.3338  -8.7135  -6.6169  -3.3192  -3.3033  -2.0829
    -1.8848  -1.4888  -0.3726  -0.1164  -0.0706   0.6357   1.1117   3.7381
     7.0026  10.6745  12.1319  12.6486

     the Fermi energy is     4.9895 ev

!    total energy              =     -91.15751314 Ry
     Harris-Foulkes estimate   =     -91.15751315 Ry
     estimated scf accuracy    <          9.8E-09 Ry

     The total energy is the sum of the following terms:

     one-electron contribution =     -47.50062150 Ry
     hartree contribution      =      37.65995440 Ry
     xc contribution           =     -27.96853848 Ry
     ewald contribution        =     -53.34862760 Ry
     smearing contrib. (-TS)   =       0.00032003 Ry

     convergence has been achieved in   8 iterations

     Forces acting on atoms (cartesian axes, Ry/au):

     atom    1 type  1   force =     0.01766525   -0.00704594    0.00005618
     atom    2 type  1   force =    -0.01770775    0.00707830   -0.00014013
     atom    3 type  1   force =    -0.01778339    0.00643271   -0.00014144
     atom    4 type  1   force =     0.01779230   -0.00644862    0.00011613
     atom    5 type  1   force =     0.01749618   -0.00701491    0.00023279
     atom    6 type  1   force =     0.01769319   -0.00639165    0.00016073
     atom    7 type  1   force =    -0.01745117    0.00696194   -0.00014060
     atom    8 type  1   force =    -0.01770460    0.00642818   -0.00014366

     Total force =     0.053463     Total SCF correction =     0.000254


     Computing stress (Cartesian axis) and pressure

          total   stress  (Ry/bohr**3)                   (kbar)     P=        2.22
  -0.00016642   0.00005514   0.00000104          -24.48        8.11        0.15
   0.00005514  -0.00001930  -0.00000037            8.11       -2.84       -0.05
   0.00000104  -0.00000037   0.00023094            0.15       -0.05       33.97


     BFGS Geometry Optimization

     number of scf cycles    =   1
     number of bfgs steps    =   0

     enthalpy new            =     -91.1574755513 Ry

     new trust radius        =       0.0271462002 bohr
     new conv_thr            =       0.0000000100 Ry

     new unit-cell volume =    553.62023 a.u.^3 (    82.03805 Ang^3 )
     density =      1.94314 g/cm^3

CELL_PARAMETERS (bohr)
  16.105309664   1.627112462   0.002418616
   1.108884192   7.452611797   0.003580237
   0.000519983   0.000057200   4.682873218

ATOMIC_POSITIONS (crystal)
C             0.2915321793        0.5101919370        0.0710014882
C             0.4563748532        0.3450220434        0.0709524795
C             0.2064121019        0.5953091727        0.5709702644
C             0.5414976050        0.2599245400        0.5709773012
C             0.7915292786        0.0102544458        0.0709344196
C             0.0414938551        0.7599476360        0.5709598758
C             0.9563860375        0.8450597336        0.0709113855
C             0.7064170894        0.0953394916        0.5708907857



     Writing output data file ./pp.save/
     NEW-OLD atomic charge density approx. for the potential
     extrapolated charge   32.03512, renormalised to   32.00000

     total cpu time spent up to now is        8.5 secs

     Self-consistent Calculation

     iteration #  1     ecut=    40.00 Ry     beta= 0.50
     Davidson diagonalization with overlap
     ethr =  1.00E-06,  avg # of iterations =  5.7

     total cpu time spent up to now is       10.5 secs

     total energy              =     -91.15644605 Ry
     Harris-Foulkes estimate   =     -91.11446504 Ry
     estimated scf accuracy    <       0.00124338 Ry

     iteration #  2     ecut=    40.00 Ry     beta= 0.50
     Davidson diagonalization with overlap
     ethr =  3.89E-06,  avg # of iterations =  1.9

     total cpu time spent up to now is       11.2 secs

     total energy              =     -91.15646961 Ry
     Harris-Foulkes estimate   =     -91.15655881 Ry
     estimated scf accuracy    <       0.00016519 Ry

     iteration #  3     ecut=    40.00 Ry     beta= 0.50
     Davidson diagonalization with overlap
     ethr =  5.16E-07,  avg # of iterations =  2.0

     total cpu time spent up to now is       12.0 secs

     total energy              =     -91.15650119 Ry
     Harris-Foulkes estimate   =     -91.15650187 Ry
     estimated scf accuracy    <       0.00000402 Ry

     iteration #  4     ecut=    40.00 Ry     beta= 0.50
     Davidson diagonalization with overlap
     ethr =  1.26E-08,  avg # of iterations =  2.3

     total cpu time spent up to now is       12.9 secs

     total energy              =     -91.15650172 Ry
     Harris-Foulkes estimate   =     -91.15650265 Ry
     estimated scf accuracy    <       0.00000295 Ry

     iteration #  5     ecut=    40.00 Ry     beta= 0.50
     Davidson diagonalization with overlap
     ethr =  9.22E-09,  avg # of iterations =  2.0

     total cpu time spent up to now is       13.7 secs

     total energy              =     -91.15650231 Ry
     Harris-Foulkes estimate   =     -91.15650235 Ry
     estimated scf accuracy    <       0.00000065 Ry

     iteration #  6     ecut=    40.00 Ry     beta= 0.50
     Davidson diagonalization with overlap
     ethr =  2.05E-09,  avg # of iterations =  1.1

     total cpu time spent up to now is       14.3 secs

     End of self-consistent calculation

          k = 0.0000 0.0000 0.0000 (  2343 PWs)   bands (ev):

   -14.0769 -12.5932 -12.5930  -8.6680  -7.9050  -2.0141  -2.0140  -1.6819
    -0.9401  -0.0555  -0.0547   0.4880   0.4882   2.2266   2.6403   3.3741
     7.0741   8.8721  11.0645  11.0676

          k =-0.0001-0.0003 0.6940 (  2367 PWs)   bands (ev):

   -13.3746 -11.9055 -11.9053  -8.0593  -7.3769  -3.3538  -2.7694  -2.7678
    -1.0573  -1.0555  -0.8719   0.3445   0.7150   0.7158   0.8142   4.2201
     6.7067   9.7684  11.4606  11.4633

          k =-0.0001-0.0006 1.3880 (  2388 PWs)   bands (ev):

   -11.3112  -9.9143  -9.9139  -8.1860  -6.4281  -6.4274  -6.2473  -4.7693
    -3.3136  -2.1497  -1.0038  -1.0030   1.4283   2.6630   2.6636   4.5743
     6.6950   8.3617   8.3649  10.5168

          k =-0.0746 0.7379-0.0000 (  2376 PWs)   bands (ev):

   -13.8563 -13.3429 -11.4488  -9.9940  -6.3139  -4.1831  -2.0725  -1.6810
    -0.7634  -0.2700   0.0254   1.0258   1.4191   1.6093   2.1002   2.2741
     8.2928  10.1547  11.3683  12.7743

          k =-0.0746 0.7376 0.6940 (  2357 PWs)   bands (ev):

   -13.1580 -12.6500 -10.7779  -9.3554  -5.8953  -4.1416  -3.1164  -2.3715
    -1.5736  -1.2457  -0.8595  -0.4131   0.3071   0.9616   1.7749   2.8631
     7.8444   9.4169  12.1738  13.0110

          k =-0.0747 0.7373 1.3880 (  2350 PWs)   bands (ev):

   -11.1075 -10.6215  -8.9229  -8.1931  -7.0696  -6.9793  -5.4116  -4.1921
    -3.6955  -2.1456  -1.3793  -0.7302   1.0960   1.4190   3.2653   3.8520
     6.6936   7.1523   9.1273   9.8744

          k =-0.0744 0.7385-1.3880 (  2348 PWs)   bands (ev):

   -11.1074 -10.6213  -8.9235  -8.1923  -7.0684  -6.9808  -5.4123  -4.1915
    -3.6948  -2.1463  -1.3800  -0.7294   1.0943   1.4190   3.2634   3.8543
     6.6924   7.1544   9.1279   9.8749

          k =-0.0745 0.7382-0.6940 (  2357 PWs)   bands (ev):

   -13.1580 -12.6499 -10.7780  -9.3552  -5.8960  -4.1404  -3.1160  -2.3728
    -1.5751  -1.2466  -0.8598  -0.4117   0.3088   0.9601   1.7738   2.8637
     7.8438   9.4184  12.1777  13.0118

          k =-0.5122 0.0762 0.0001 (  2356 PWs)   bands (ev):

   -13.7034 -13.7034 -10.7832 -10.7826  -5.2654  -5.2651  -1.2701  -1.2700
    -0.5643  -0.5637   0.9110   0.9118   1.8395   1.8401   1.8758   1.8769
     9.2016   9.2024   9.4280   9.4281

          k =-0.5123 0.0759 0.6941 (  2372 PWs)   bands (ev):

   -13.0042 -13.0041 -10.1248 -10.1242  -4.9954  -4.9943  -2.8361  -2.8351
    -0.9913  -0.9897  -0.4704  -0.4702   0.7589   0.7607   2.5802   2.5808
     8.7014   8.7024  10.3216  10.3227

          k =-0.5123 0.0756 1.3881 (  2364 PWs)   bands (ev):

   -10.9537 -10.9535  -8.4804  -8.4792  -7.2177  -7.2163  -4.8309  -4.8301
    -2.9051  -2.9044  -0.9619  -0.9611   1.7540   1.7542   3.8702   3.8710
     7.2150   7.2175   9.7584   9.7605

          k =-0.5867 0.8141 0.0001 (  2376 PWs)   bands (ev):

   -13.9671 -13.0100 -12.0017  -9.2574  -7.2362  -3.1206  -2.3396  -0.9541
    -0.9106  -0.8881  -0.1295   0.0792   0.9511   2.0625   2.5427   3.1086
     7.1520  11.6551  11.7723  11.8975

          k =-0.5868 0.8138 0.6941 (  2360 PWs)   bands (ev):

   -13.2686 -12.3188 -11.3243  -8.6371  -6.7386  -3.4178  -3.2774  -2.1490
    -1.7831  -1.5052  -0.3189  -0.1140   0.0728   0.6579   0.9320   3.9176
     6.7811  10.5942  12.0602  12.6743

          k =-0.5869 0.8135 1.3881 (  2345 PWs)   bands (ev):

   -11.2161 -10.3025  -9.3914  -8.1471  -6.7996  -6.5446  -5.9204  -4.3842
    -3.6326  -1.8507  -1.5038  -0.7399   0.8792   1.9990   2.5869   4.1422
     6.6514   7.5990   8.3476  10.3792

          k =-0.5866 0.8148-1.3880 (  2346 PWs)   bands (ev):

   -11.2159 -10.3025  -9.3909  -8.1477  -6.8006  -6.5436  -5.9197  -4.3848
    -3.6332  -1.8501  -1.5031  -0.7407   0.8782   1.9969   2.5881   4.1424
     6.6520   7.5989   8.3490  10.3795

          k =-0.5867 0.8144-0.6940 (  2360 PWs)   bands (ev):

   -13.2685 -12.3188 -11.3241  -8.6373  -6.7382  -3.4194  -3.2778  -2.1475
    -1.7814  -1.5058  -0.3206  -0.1150   0.0716   0.6581   0.9333   3.9169
     6.7820  10.5940  12.0613  12.6778

     the Fermi energy is     4.7814 ev

!    total energy              =     -91.15650235 Ry
     Harris-Foulkes estimate   =     -91.15650236 Ry
     estimated scf accuracy    <          7.7E-09 Ry

     The total energy is the sum of the following terms:

     one-electron contribution =     -47.45119592 Ry
     hartree contribution      =      37.62292961 Ry
     xc contribution           =     -27.96107655 Ry
     ewald contribution        =     -53.36770328 Ry
     smearing contrib. (-TS)   =       0.00054379 Ry

     convergence has been achieved in   6 iterations

     Forces acting on atoms (cartesian axes, Ry/au):

     atom    1 type  1   force =    -0.03039104    0.01167607   -0.00018724
     atom    2 type  1   force =     0.03037316   -0.01166023    0.00015924
     atom    3 type  1   force =     0.03002555   -0.01200038    0.00012628
     atom    4 type  1   force =    -0.03010534    0.01202455   -0.00019542
     atom    5 type  1   force =    -0.03006749    0.01153399   -0.00020698
     atom    6 type  1   force =    -0.02995272    0.01197594   -0.00019529
     atom    7 type  1   force =     0.03008012   -0.01156156    0.00022921
     atom    8 type  1   force =     0.03003776   -0.01198837    0.00027019

     Total force =     0.091528     Total SCF correction =     0.000199


     Computing stress (Cartesian axis) and pressure

          total   stress  (Ry/bohr**3)                   (kbar)     P=       -0.33
   0.00020281  -0.00008793  -0.00000124           29.83      -12.94       -0.18
  -0.00008793   0.00003749   0.00000048          -12.94        5.52        0.07
  -0.00000124   0.00000048  -0.00024703           -0.18        0.07      -36.34


     number of scf cycles    =   2
     number of bfgs steps    =   1

     enthalpy old            =     -91.1574755513 Ry
     enthalpy new            =     -91.1564647201 Ry

     CASE: enthalpy_new > enthalpy_old

     new trust radius        =       0.0108150718 bohr
     new conv_thr            =       0.0000000100 Ry

     new unit-cell volume =    553.25948 a.u.^3 (    81.98460 Ang^3 )
     density =      1.94441 g/cm^3

CELL_PARAMETERS (bohr)
  16.144332592   1.614215321   0.002167648
   1.105476408   7.453863715   0.003592085
   0.000448051   0.000082860   4.666762199

ATOMIC_POSITIONS (crystal)
C             0.2908282359        0.5109101992        0.0709940013
C             0.4570805757        0.3443007954        0.0709707771
C             0.2071170758        0.5946400053        0.5709886910
C             0.5407922073        0.2605950786        0.5709621326
C             0.7908318703        0.0109688058        0.0709041921
C             0.0407925041        0.7606127214        0.5709389671
C             0.9570814577        0.8443500622        0.0709297395
C             0.7071190732        0.0946713321        0.5709094993



     Writing output data file ./pp.save/
     NEW-OLD atomic charge density approx. for the potential
     extrapolated charge   31.97913, renormalised to   32.00000

     total cpu time spent up to now is       14.4 secs

     Self-consistent Calculation

     iteration #  1     ecut=    40.00 Ry     beta= 0.50
     Davidson diagonalization with overlap
     ethr =  1.00E-06,  avg # of iterations =  4.7

     total cpu time spent up to now is       16.2 secs

     total energy              =     -91.15831580 Ry
     Harris-Foulkes estimate   =     -91.18388320 Ry
     estimated scf accuracy    <       0.00045116 Ry

     iteration #  2     ecut=    40.00 Ry     beta= 0.50
     Davidson diagonalization with overlap
     ethr =  1.41E-06,  avg # of iterations =  2.0

     total cpu time spent up to now is       17.0 secs

     total energy              =     -91.15832818 Ry
     Harris-Foulkes estimate   =     -91.15835933 Ry
     estimated scf accuracy    <       0.00005843 Ry

     iteration #  3     ecut=    40.00 Ry     beta= 0.50
     Davidson diagonalization with overlap
     ethr =  1.83E-07,  avg # of iterations =  2.0

     total cpu time spent up to now is       17.9 secs

     total energy              =     -91.15833924 Ry
     Harris-Foulkes estimate   =     -91.15833987 Ry
     estimated scf accuracy    <       0.00000213 Ry

     iteration #  4     ecut=    40.00 Ry     beta= 0.50
     Davidson diagonalization with overlap
     ethr =  6.65E-09,  avg # of iterations =  2.5

     total cpu time spent up to now is       18.9 secs

     total energy              =     -91.15833959 Ry
     Harris-Foulkes estimate   =     -91.15834027 Ry
     estimated scf accuracy    <       0.00000213 Ry

     iteration #  5     ecut=    40.00 Ry     beta= 0.50
     Davidson diagonalization with overlap
     ethr =  6.65E-09,  avg # of iterations =  2.0

     total cpu time spent up to now is       19.7 secs

     total energy              =     -91.15833997 Ry
     Harris-Foulkes estimate   =     -91.15833997 Ry
     estimated scf accuracy    <       0.00000020 Ry

     iteration #  6     ecut=    40.00 Ry     beta= 0.50
     Davidson diagonalization with overlap
     ethr =  6.36E-10,  avg # of iterations =  1.5

     total cpu time spent up to now is       20.5 secs

     End of self-consistent calculation

          k = 0.0000 0.0000 0.0000 (  2343 PWs)   bands (ev):

   -14.0771 -12.5992 -12.5992  -8.7789  -7.7870  -1.9568  -1.9567  -1.6806
    -0.9479  -0.0749  -0.0737   0.4355   0.4355   2.4007   2.4786   3.2372
     7.2299   8.8749  11.0521  11.0560

          k =-0.0001-0.0003 0.6964 (  2367 PWs)   bands (ev):

   -13.3706 -11.9074 -11.9073  -8.1716  -7.2389  -3.3751  -2.7098  -2.7097
    -1.1071  -1.1070  -0.8601   0.2022   0.7092   0.7104   0.9793   4.0908
     6.8639   9.7807  11.4977  11.5003

          k =-0.0001-0.0007 1.3928 (  2388 PWs)   bands (ev):

   -11.2929  -9.8961  -9.8961  -8.1172  -6.4359  -6.4358  -6.3640  -4.7096
    -3.4390  -2.0191  -0.9995  -0.9993   1.4740   2.7102   2.7114   4.6820
     6.5889   8.3250   8.3272  10.4500

          k =-0.0738 0.7376-0.0000 (  2376 PWs)   bands (ev):

   -13.8571 -13.3457 -11.4603 -10.0189  -6.2776  -4.1463  -2.0730  -1.6871
    -0.7760  -0.2971   0.1210   0.9847   1.3278   1.7557   2.0250   2.1366
     8.3835  10.2093  11.3696  12.8935

          k =-0.0738 0.7373 0.6964 (  2357 PWs)   bands (ev):

   -13.1548 -12.6486 -10.7852  -9.3756  -5.8405  -4.0735  -3.1470  -2.4282
    -1.5495  -1.2360  -0.8547  -0.4394   0.2941   1.0064   1.7507   2.8076
     7.9281   9.4705  12.1908  13.0472

          k =-0.0739 0.7370 1.3928 (  2350 PWs)   bands (ev):

   -11.0897 -10.6043  -8.8938  -8.1189  -7.0888  -7.0575  -5.4289  -4.2391
    -3.6799  -2.1440  -1.3283  -0.7121   1.1394   1.4616   3.3245   3.9310
     6.6211   7.1049   9.0920   9.8234

          k =-0.0736 0.7383-1.3928 (  2348 PWs)   bands (ev):

   -11.0895 -10.6042  -8.8936  -8.1191  -7.0888  -7.0576  -5.4291  -4.2391
    -3.6798  -2.1441  -1.3285  -0.7120   1.1381   1.4609   3.3240   3.9319
     6.6216   7.1052   9.0934   9.8235

          k =-0.0737 0.7380-0.6964 (  2357 PWs)   bands (ev):

   -13.1547 -12.6486 -10.7851  -9.3756  -5.8405  -4.0736  -3.1471  -2.4282
    -1.5497  -1.2368  -0.8551  -0.4393   0.2941   1.0063   1.7501   2.8076
     7.9285   9.4710  12.1948  13.0482

          k =-0.5108 0.0758 0.0000 (  2356 PWs)   bands (ev):

   -13.7051 -13.7049 -10.7993 -10.7992  -5.2322  -5.2321  -1.2735  -1.2732
    -0.5824  -0.5821   1.0327   1.0328   1.7618   1.7621   1.7810   1.7811
     9.2798   9.2799   9.4270   9.4272

          k =-0.5109 0.0754 0.6965 (  2372 PWs)   bands (ev):

   -13.0018 -13.0015 -10.1363 -10.1362  -4.9363  -4.9361  -2.8784  -2.8781
    -0.9878  -0.9877  -0.4627  -0.4622   0.7719   0.7720   2.5407   2.5413
     8.7709   8.7710  10.3287  10.3296

          k =-0.5110 0.0751 1.3929 (  2364 PWs)   bands (ev):

   -10.9362 -10.9359  -8.4275  -8.4274  -7.2637  -7.2635  -4.8584  -4.8582
    -2.8989  -2.8988  -0.9310  -0.9309   1.7992   1.7996   3.9367   3.9376
     7.1574   7.1579   9.7087   9.7098

          k =-0.5846 0.8134 0.0000 (  2376 PWs)   bands (ev):

   -13.9675 -13.0142 -12.0101  -9.3034  -7.1818  -3.0763  -2.3384  -0.9230
    -0.8973  -0.8792  -0.1551   0.0409   0.8805   2.2286   2.3878   2.9867
     7.2887  11.6943  11.7613  11.9002

          k =-0.5847 0.8131 0.6965 (  2360 PWs)   bands (ev):

   -13.2649 -12.3189 -11.3285  -8.6789  -6.6684  -3.3493  -3.3016  -2.1052
    -1.8429  -1.4941  -0.3542  -0.1141  -0.0047   0.6461   1.0313   3.8110
     6.9130  10.6407  12.1027  12.6566

          k =-0.5847 0.8127 1.3929 (  2345 PWs)   bands (ev):

   -11.1980 -10.2855  -9.3698  -8.0756  -6.8105  -6.6391  -5.9309  -4.3496
    -3.7154  -1.7629  -1.5022  -0.7309   0.9226   2.0435   2.6337   4.2413
     6.5508   7.5700   8.3173  10.3150

          k =-0.5845 0.8140-1.3928 (  2346 PWs)   bands (ev):

   -11.1979 -10.2853  -9.3698  -8.0757  -6.8106  -6.6391  -5.9309  -4.3496
    -3.7156  -1.7629  -1.5021  -0.7310   0.9215   2.0423   2.6336   4.2423
     6.5505   7.5714   8.3175  10.3156

          k =-0.5845 0.8137-0.6964 (  2360 PWs)   bands (ev):

   -13.2648 -12.3188 -11.3285  -8.6788  -6.6685  -3.3493  -3.3016  -2.1052
    -1.8429  -1.4948  -0.3542  -0.1148  -0.0048   0.6459   1.0313   3.8107
     6.9134  10.6415  12.1033  12.6600

     the Fermi energy is     4.9166 ev

!    total energy              =     -91.15833998 Ry
     Harris-Foulkes estimate   =     -91.15833999 Ry
     estimated scf accuracy    <          4.0E-09 Ry

     The total energy is the sum of the following terms:

     one-electron contribution =     -47.47264002 Ry
     hartree contribution      =      37.64109661 Ry
     xc contribution           =     -27.96470023 Ry
     ewald contribution        =     -53.36243387 Ry
     smearing contrib. (-TS)   =       0.00033752 Ry

     convergence has been achieved in   6 iterations

     Forces acting on atoms (cartesian axes, Ry/au):

     atom    1 type  1   force =    -0.00095295    0.00019497   -0.00004558
     atom    2 type  1   force =     0.00092780   -0.00016912   -0.00001550
     atom    3 type  1   force =     0.00078275   -0.00070570   -0.00003019
     atom    4 type  1   force =    -0.00078645    0.00069832   -0.00001366
     atom    5 type  1   force =    -0.00096834    0.00016869    0.00004984
     atom    6 type  1   force =    -0.00077851    0.00071160    0.00001260
     atom    7 type  1   force =     0.00098035   -0.00020553    0.00001343
     atom    8 type  1   force =     0.00079535   -0.00069323    0.00002906

     Total force =     0.002873     Total SCF correction =     0.000159


     Computing stress (Cartesian axis) and pressure

          total   stress  (Ry/bohr**3)                   (kbar)     P=        0.42
  -0.00003033   0.00000264   0.00000011           -4.46        0.39        0.02
   0.00000264   0.00000133  -0.00000002            0.39        0.20       -0.00
   0.00000011  -0.00000002   0.00003751            0.02       -0.00        5.52


     number of scf cycles    =   3
     number of bfgs steps    =   1

     enthalpy old            =     -91.1574755513 Ry
     enthalpy new            =     -91.1583023748 Ry

     CASE: enthalpy_new < enthalpy_old

     new trust radius        =       0.0045198037 bohr
     new conv_thr            =            1.0E-10 Ry

     new unit-cell volume =    553.37335 a.u.^3 (    82.00147 Ang^3 )
     density =      1.94401 g/cm^3

CELL_PARAMETERS (bohr)
  16.131780677   1.615416069   0.002214062
   1.105145781   7.454169758   0.003594930
   0.000460817   0.000080566   4.671245924

ATOMIC_POSITIONS (crystal)
C             0.2907695895        0.5109463300        0.0709841070
C             0.4571373769        0.3442685815        0.0709673120
C             0.2071697091        0.5945356056        0.5709820828
C             0.5407394108        0.2606985047        0.5709591742
C             0.7907724608        0.0110015462        0.0709151971
C             0.0407400659        0.7607178968        0.5709417557
C             0.9571419835        0.8443120614        0.0709325776
C             0.7071724035        0.0945684739        0.5709157937



     Writing output data file ./pp.save/
     NEW-OLD atomic charge density approx. for the potential
     extrapolated charge   32.00658, renormalised to   32.00000

     total cpu time spent up to now is       20.5 secs

     Self-consistent Calculation

     iteration #  1     ecut=    40.00 Ry     beta= 0.50
     Davidson diagonalization with overlap
     ethr =  1.00E-06,  avg # of iterations =  2.0

     Threshold (ethr) on eigenvalues was too large:
     Diagonalizing with lowered threshold

     Davidson diagonalization with overlap
     ethr =  4.84E-09,  avg # of iterations =  3.7

     total cpu time spent up to now is       22.9 secs

     total energy              =     -91.15835619 Ry
     Harris-Foulkes estimate   =     -91.15036504 Ry
     estimated scf accuracy    <       0.00000164 Ry

     iteration #  2     ecut=    40.00 Ry     beta= 0.50
     Davidson diagonalization with overlap
     ethr =  5.14E-09,  avg # of iterations =  2.0

     total cpu time spent up to now is       23.9 secs

     total energy              =     -91.15835771 Ry
     Harris-Foulkes estimate   =     -91.15835789 Ry
     estimated scf accuracy    <       0.00000052 Ry

     iteration #  3     ecut=    40.00 Ry     beta= 0.50
     Davidson diagonalization with overlap
     ethr =  1.64E-09,  avg # of iterations =  1.3

     total cpu time spent up to now is       24.7 secs

     total energy              =     -91.15835773 Ry
     Harris-Foulkes estimate   =     -91.15835778 Ry
     estimated scf accuracy    <       0.00000015 Ry

     iteration #  4     ecut=    40.00 Ry     beta= 0.50
     Davidson diagonalization with overlap
     ethr =  4.67E-10,  avg # of iterations =  1.2

     total cpu time spent up to now is       25.5 secs

     total energy              =     -91.15835774 Ry
     Harris-Foulkes estimate   =     -91.15835776 Ry
     estimated scf accuracy    <       0.00000007 Ry

     iteration #  5     ecut=    40.00 Ry     beta= 0.50
     Davidson diagonalization with overlap
     ethr =  2.13E-10,  avg # of iterations =  2.0

     total cpu time spent up to now is       26.6 secs

     total energy              =     -91.15835775 Ry
     Harris-Foulkes estimate   =     -91.15835775 Ry
     estimated scf accuracy    <          1.7E-09 Ry

     iteration #  6     ecut=    40.00 Ry     beta= 0.50
     Davidson diagonalization with overlap
     ethr =  5.24E-12,  avg # of iterations =  2.9

     total cpu time spent up to now is       28.0 secs

     total energy              =     -91.15835775 Ry
     Harris-Foulkes estimate   =     -91.15835775 Ry
     estimated scf accuracy    <          2.6E-10 Ry

     iteration #  7     ecut=    40.00 Ry     beta= 0.50
     Davidson diagonalization with overlap
     ethr =  8.20E-13,  avg # of iterations =  2.0

     total cpu time spent up to now is       29.1 secs

     End of self-consistent calculation

          k = 0.0000 0.0000 0.0000 (  2343 PWs)   bands (ev):

   -14.0766 -12.5963 -12.5961  -8.7659  -7.7821  -1.9413  -1.9412  -1.6803
    -0.9738  -0.0727  -0.0719   0.4117   0.4118   2.4163   2.4582   3.2429
     7.2360   8.8741  11.0560  11.0590

          k =-0.0001-0.0003 0.6957 (  2367 PWs)   bands (ev):

   -13.3716 -11.9059 -11.9057  -8.1602  -7.2367  -3.3929  -2.7177  -2.7176
    -1.1021  -1.1020  -0.8613   0.1902   0.7097   0.7106   0.9875   4.0950
     6.8642   9.7780  11.4933  11.4953

          k =-0.0001-0.0007 1.3915 (  2388 PWs)   bands (ev):

   -11.2983  -9.8994  -9.8992  -8.1293  -6.4436  -6.4435  -6.3573  -4.7059
    -3.4402  -2.0160  -0.9879  -0.9879   1.4690   2.7063   2.7074   4.6746
     6.5887   8.3171   8.3189  10.4440

          k =-0.0739 0.7376-0.0000 (  2376 PWs)   bands (ev):

   -13.8563 -13.3440 -11.4555 -10.0113  -6.2674  -4.1330  -2.0725  -1.6862
    -0.8016  -0.3219   0.1375   0.9891   1.3055   1.7718   2.0305   2.1156
     8.3909  10.2170  11.3685  12.8453

          k =-0.0739 0.7373 0.6957 (  2357 PWs)   bands (ev):

   -13.1554 -12.6484 -10.7819  -9.3696  -5.8340  -4.0711  -3.1634  -2.4367
    -1.5605  -1.2370  -0.8554  -0.4500   0.3035   1.0143   1.7533   2.8113
     7.9283   9.4690  12.1879  13.0388

          k =-0.0740 0.7370 1.3915 (  2350 PWs)   bands (ev):

   -11.0948 -10.6086  -8.8964  -8.1284  -7.0965  -7.0565  -5.4348  -4.2423
    -3.6728  -2.1338  -1.3226  -0.7024   1.1343   1.4568   3.3207   3.9255
     6.6177   7.0982   9.0846   9.8169

          k =-0.0737 0.7383-1.3915 (  2348 PWs)   bands (ev):

   -11.0946 -10.6085  -8.8964  -8.1285  -7.0964  -7.0565  -5.4350  -4.2423
    -3.6727  -2.1338  -1.3227  -0.7024   1.1330   1.4561   3.3201   3.9264
     6.6182   7.0985   9.0860   9.8169

          k =-0.0738 0.7379-0.6957 (  2357 PWs)   bands (ev):

   -13.1553 -12.6484 -10.7818  -9.3696  -5.8340  -4.0711  -3.1634  -2.4368
    -1.5606  -1.2378  -0.8558  -0.4500   0.3035   1.0143   1.7527   2.8114
     7.9286   9.4696  12.1920  13.0398

          k =-0.5113 0.0758 0.0000 (  2356 PWs)   bands (ev):

   -13.7039 -13.7038 -10.7931 -10.7930  -5.2202  -5.2201  -1.2727  -1.2726
    -0.6076  -0.6075   1.0491   1.0493   1.7403   1.7404   1.7850   1.7851
     9.2866   9.2868   9.4274   9.4275

          k =-0.5113 0.0755 0.6958 (  2372 PWs)   bands (ev):

   -13.0020 -13.0020 -10.1317 -10.1316  -4.9305  -4.9304  -2.8919  -2.8918
    -0.9987  -0.9985  -0.4634  -0.4631   0.7809   0.7810   2.5429   2.5435
     8.7707   8.7709  10.3271  10.3280

          k =-0.5114 0.0751 1.3915 (  2364 PWs)   bands (ev):

   -10.9409 -10.9408  -8.4322  -8.4320  -7.2685  -7.2685  -4.8630  -4.8628
    -2.8900  -2.8899  -0.9232  -0.9230   1.7946   1.7949   3.9323   3.9331
     7.1522   7.1527   9.7013   9.7024

          k =-0.5851 0.8134 0.0000 (  2376 PWs)   bands (ev):

   -13.9669 -13.0120 -12.0062  -9.2938  -7.1737  -3.0617  -2.3384  -0.9231
    -0.9209  -0.8630  -0.1523   0.0165   0.8575   2.2444   2.3672   2.9935
     7.2964  11.7000  11.7606  11.9002

          k =-0.5852 0.8131 0.6958 (  2360 PWs)   bands (ev):

   -13.2657 -12.3182 -11.3260  -8.6709  -6.6632  -3.3522  -3.3190  -2.1154
    -1.8443  -1.4956  -0.3459  -0.1136  -0.0157   0.6472   1.0388   3.8160
     6.9138  10.6369  12.0956  12.6548

          k =-0.5852 0.8128 1.3915 (  2345 PWs)   bands (ev):

   -11.2032 -10.2893  -9.3725  -8.0872  -6.8185  -6.6343  -5.9378  -4.3445
    -3.7174  -1.7589  -1.4909  -0.7200   0.9171   2.0396   2.6300   4.2335
     6.5509   7.5619   8.3087  10.3096

          k =-0.5850 0.8141-1.3914 (  2346 PWs)   bands (ev):

   -11.2031 -10.2892  -9.3725  -8.0873  -6.8187  -6.6343  -5.9378  -4.3445
    -3.7175  -1.7589  -1.4909  -0.7200   0.9160   2.0384   2.6300   4.2344
     6.5507   7.5633   8.3089  10.3101

          k =-0.5851 0.8137-0.6957 (  2360 PWs)   bands (ev):

   -13.2656 -12.3181 -11.3260  -8.6708  -6.6632  -3.3523  -3.3191  -2.1154
    -1.8443  -1.4963  -0.3459  -0.1144  -0.0158   0.6470   1.0387   3.8157
     6.9142  10.6376  12.0962  12.6582

     the Fermi energy is     4.9090 ev

!    total energy              =     -91.15835775 Ry
     Harris-Foulkes estimate   =     -91.15835775 Ry
     estimated scf accuracy    <          3.5E-11 Ry

     The total energy is the sum of the following terms:

     one-electron contribution =     -47.45443302 Ry
     hartree contribution      =      37.62973867 Ry
     xc contribution           =     -27.96272124 Ry
     ewald contribution        =     -53.37128111 Ry
     smearing contrib. (-TS)   =       0.00033896 Ry

     convergence has been achieved in   7 iterations

     Forces acting on atoms (cartesian axes, Ry/au):

     atom    1 type  1   force =     0.00013040   -0.00024517   -0.00002796
     atom    2 type  1   force =    -0.00013273    0.00025454   -0.00001663
     atom    3 type  1   force =    -0.00033312   -0.00013365   -0.00003141
     atom    4 type  1   force =     0.00030709    0.00014537   -0.00000965
     atom    5 type  1   force =     0.00018070   -0.00028161    0.00001960
     atom    6 type  1   force =     0.00034423    0.00013508    0.00000078
     atom    7 type  1   force =    -0.00017033    0.00025780    0.00002338
     atom    8 type  1   force =    -0.00032625   -0.00013237    0.00004189

     Total force =     0.000936     Total SCF correction =     0.000006


     Computing stress (Cartesian axis) and pressure

          total   stress  (Ry/bohr**3)                   (kbar)     P=       -0.39
  -0.00000351  -0.00000769  -0.00000004           -0.52       -1.13       -0.01
  -0.00000769   0.00000567   0.00000003           -1.13        0.83        0.01
  -0.00000004   0.00000003  -0.00001015           -0.01        0.01       -1.49


     number of scf cycles    =   4
     number of bfgs steps    =   2

     enthalpy old            =     -91.1583023748 Ry
     enthalpy new            =     -91.1583201364 Ry

     CASE: enthalpy_new < enthalpy_old

     new trust radius        =       0.0009874005 bohr
     new conv_thr            =            1.0E-10 Ry

     new unit-cell volume =    553.28186 a.u.^3 (    81.98791 Ang^3 )
     density =      1.94433 g/cm^3

CELL_PARAMETERS (bohr)
  16.129432449   1.612931742   0.002204363
   1.103769161   7.454925773   0.003599147
   0.000457722   0.000083965   4.670487137

ATOMIC_POSITIONS (crystal)
C             0.2907731291        0.5109195435        0.0709781191
C             0.4571335068        0.3442967873        0.0709639358
C             0.2071576759        0.5945147627        0.5709757247
C             0.5407499049        0.2607209896        0.5709570897
C             0.7907790220        0.0109695626        0.0709196454
C             0.0407527199        0.7607388272        0.5709420398
C             0.9571362605        0.8443407143        0.0709372219
C             0.7071607809        0.0945478129        0.5709242237



     Writing output data file ./pp.save/
     NEW-OLD atomic charge density approx. for the potential
     extrapolated charge   31.99471, renormalised to   32.00000

     total cpu time spent up to now is       29.2 secs

     Self-consistent Calculation

     iteration #  1     ecut=    40.00 Ry     beta= 0.50
     Davidson diagonalization with overlap
     ethr =  1.00E-06,  avg # of iterations =  2.0

     Threshold (ethr) on eigenvalues was too large:
     Diagonalizing with lowered threshold

     Davidson diagonalization with overlap
     ethr =  1.81E-09,  avg # of iterations =  2.9

     total cpu time spent up to now is       31.8 secs

     total energy              =     -91.15835990 Ry
     Harris-Foulkes estimate   =     -91.16478436 Ry
     estimated scf accuracy    <       0.00000062 Ry

     iteration #  2     ecut=    40.00 Ry     beta= 0.50
     Davidson diagonalization with overlap
     ethr =  1.94E-09,  avg # of iterations =  2.7

     total cpu time spent up to now is       34.4 secs

     total energy              =     -91.15836083 Ry
     Harris-Foulkes estimate   =     -91.15836091 Ry
     estimated scf accuracy    <       0.00000024 Ry

     iteration #  3     ecut=    40.00 Ry     beta= 0.50
     Davidson diagonalization with overlap
     ethr =  7.35E-10,  avg # of iterations =  1.0

     total cpu time spent up to now is       35.4 secs

     total energy              =     -91.15836079 Ry
     Harris-Foulkes estimate   =     -91.15836084 Ry
     estimated scf accuracy    <       0.00000007 Ry

     iteration #  4     ecut=    40.00 Ry     beta= 0.50
     Davidson diagonalization with overlap
     ethr =  2.18E-10,  avg # of iterations =  2.0

     total cpu time spent up to now is       36.8 secs

     total energy              =     -91.15836081 Ry
     Harris-Foulkes estimate   =     -91.15836081 Ry
     estimated scf accuracy    <          1.6E-09 Ry

     iteration #  5     ecut=    40.00 Ry     beta= 0.50
     Davidson diagonalization with overlap
     ethr =  4.93E-12,  avg # of iterations =  2.0

     total cpu time spent up to now is       38.1 secs

     total energy              =     -91.15836081 Ry
     Harris-Foulkes estimate   =     -91.15836081 Ry
     estimated scf accuracy    <          9.2E-10 Ry

     iteration #  6     ecut=    40.00 Ry     beta= 0.50
     Davidson diagonalization with overlap
     ethr =  2.89E-12,  avg # of iterations =  1.3

     total cpu time spent up to now is       39.3 secs

     total energy              =     -91.15836081 Ry
     Harris-Foulkes estimate   =     -91.15836081 Ry
     estimated scf accuracy    <          2.1E-10 Ry

     iteration #  7     ecut=    40.00 Ry     beta= 0.50
     Davidson diagonalization with overlap
     ethr =  6.46E-13,  avg # of iterations =  2.0

     total cpu time spent up to now is       40.8 secs

     End of self-consistent calculation

          k = 0.0000 0.0000 0.0000 (  2343 PWs)   bands (ev):

   -14.0766 -12.5964 -12.5963  -8.7662  -7.7825  -1.9419  -1.9419  -1.6800
    -0.9699  -0.0727  -0.0720   0.4157   0.4158   2.4157   2.4624   3.2429
     7.2356   8.8751  11.0582  11.0607

          k =-0.0001-0.0003 0.6959 (  2367 PWs)   bands (ev):

   -13.3714 -11.9057 -11.9057  -8.1603  -7.2366  -3.3902  -2.7157  -2.7156
    -1.1016  -1.1015  -0.8608   0.1932   0.7100   0.7109   0.9876   4.0953
     6.8648   9.7793  11.4960  11.4976

          k =-0.0001-0.0007 1.3917 (  2388 PWs)   bands (ev):

   -11.2974  -9.8985  -9.8984  -8.1273  -6.4420  -6.4419  -6.3568  -4.7061
    -3.4386  -2.0158  -0.9882  -0.9882   1.4702   2.7074   2.7084   4.6764
     6.5899   8.3196   8.3212  10.4465

          k =-0.0737 0.7375-0.0000 (  2376 PWs)   bands (ev):

   -13.8564 -13.3441 -11.4558 -10.0117  -6.2679  -4.1337  -2.0721  -1.6862
    -0.7977  -0.3180   0.1369   0.9901   1.3095   1.7712   2.0310   2.1197
     8.3921  10.2186  11.3688  12.8537

          k =-0.0738 0.7372 0.6958 (  2357 PWs)   bands (ev):

   -13.1552 -12.6483 -10.7819  -9.3697  -5.8341  -4.0704  -3.1608  -2.4350
    -1.5581  -1.2363  -0.8551  -0.4474   0.3036   1.0145   1.7545   2.8121
     7.9303   9.4714  12.1886  13.0425

          k =-0.0739 0.7369 1.3917 (  2350 PWs)   bands (ev):

   -11.0939 -10.6077  -8.8955  -8.1266  -7.0950  -7.0559  -5.4334  -4.2409
    -3.6730  -2.1341  -1.3225  -0.7025   1.1357   1.4580   3.3224   3.9274
     6.6200   7.1008   9.0878   9.8200

          k =-0.0736 0.7382-1.3917 (  2348 PWs)   bands (ev):

   -11.0937 -10.6076  -8.8954  -8.1267  -7.0950  -7.0559  -5.4335  -4.2409
    -3.6730  -2.1341  -1.3225  -0.7025   1.1344   1.4573   3.3219   3.9282
     6.6205   7.1011   9.0893   9.8200

          k =-0.0737 0.7378-0.6959 (  2357 PWs)   bands (ev):

   -13.1552 -12.6482 -10.7818  -9.3697  -5.8341  -4.0705  -3.1609  -2.4350
    -1.5581  -1.2371  -0.8555  -0.4474   0.3036   1.0145   1.7539   2.8121
     7.9306   9.4720  12.1926  13.0435

          k =-0.5113 0.0757 0.0000 (  2356 PWs)   bands (ev):

   -13.7039 -13.7039 -10.7933 -10.7933  -5.2207  -5.2207  -1.2725  -1.2725
    -0.6037  -0.6036   1.0485   1.0486   1.7443   1.7445   1.7849   1.7850
     9.2868   9.2871   9.4286   9.4287

          k =-0.5114 0.0754 0.6959 (  2372 PWs)   bands (ev):

   -13.0018 -13.0018 -10.1317 -10.1316  -4.9302  -4.9302  -2.8896  -2.8895
    -0.9962  -0.9960  -0.4630  -0.4626   0.7811   0.7812   2.5431   2.5437
     8.7721   8.7722  10.3286  10.3296

          k =-0.5114 0.0750 1.3918 (  2364 PWs)   bands (ev):

   -10.9400 -10.9399  -8.4309  -8.4308  -7.2674  -7.2673  -4.8615  -4.8613
    -2.8902  -2.8901  -0.9231  -0.9230   1.7957   1.7961   3.9335   3.9344
     7.1541   7.1546   9.7038   9.7049

          k =-0.5851 0.8132 0.0000 (  2376 PWs)   bands (ev):

   -13.9669 -13.0121 -12.0064  -9.2942  -7.1742  -3.0624  -2.3382  -0.9202
    -0.9192  -0.8637  -0.1522   0.0205   0.8615   2.2438   2.3713   2.9945
     7.2973  11.7020  11.7597  11.9017

          k =-0.5851 0.8129 0.6959 (  2360 PWs)   bands (ev):

   -13.2655 -12.3181 -11.3260  -8.6710  -6.6632  -3.3509  -3.3163  -2.1131
    -1.8432  -1.4952  -0.3458  -0.1127  -0.0130   0.6477   1.0390   3.8174
     6.9154  10.6397  12.0990  12.6543

          k =-0.5852 0.8126 1.3918 (  2345 PWs)   bands (ev):

   -11.2023 -10.2885  -9.3716  -8.0852  -6.8170  -6.6339  -5.9362  -4.3447
    -3.7160  -1.7587  -1.4913  -0.7203   0.9183   2.0412   2.6313   4.2355
     6.5531   7.5648   8.3116  10.3129

          k =-0.5849 0.8139-1.3917 (  2346 PWs)   bands (ev):

   -11.2022 -10.2884  -9.3716  -8.0853  -6.8171  -6.6339  -5.9363  -4.3447
    -3.7161  -1.7587  -1.4913  -0.7203   0.9172   2.0400   2.6312   4.2365
     6.5529   7.5662   8.3118  10.3135

          k =-0.5850 0.8135-0.6958 (  2360 PWs)   bands (ev):

   -13.2654 -12.3180 -11.3260  -8.6710  -6.6633  -3.3509  -3.3164  -2.1131
    -1.8433  -1.4958  -0.3457  -0.1134  -0.0130   0.6475   1.0389   3.8171
     6.9158  10.6405  12.0995  12.6578

     the Fermi energy is     4.9108 ev

!    total energy              =     -91.15836081 Ry
     Harris-Foulkes estimate   =     -91.15836081 Ry
     estimated scf accuracy    <          1.5E-11 Ry

     The total energy is the sum of the following terms:

     one-electron contribution =     -47.45897763 Ry
     hartree contribution      =      37.63381040 Ry
     xc contribution           =     -27.96395508 Ry
     ewald contribution        =     -53.36957748 Ry
     smearing contrib. (-TS)   =       0.00033898 Ry

     convergence has been achieved in   7 iterations

     Forces acting on atoms (cartesian axes, Ry/au):

     atom    1 type  1   force =    -0.00000193   -0.00017468   -0.00002545
     atom    2 type  1   force =    -0.00001025    0.00018639   -0.00001478
     atom    3 type  1   force =    -0.00010725   -0.00015023   -0.00002410
     atom    4 type  1   force =     0.00012065    0.00015032   -0.00000380
     atom    5 type  1   force =    -0.00003308   -0.00017463    0.00003679
     atom    6 type  1   force =     0.00009229    0.00016066    0.00001305
     atom    7 type  1   force =     0.00003897    0.00015806    0.00000410
     atom    8 type  1   force =    -0.00009940   -0.00015589    0.00001419

     Total force =     0.000516     Total SCF correction =     0.000004


     Computing stress (Cartesian axis) and pressure

          total   stress  (Ry/bohr**3)                   (kbar)     P=        0.11
  -0.00000238  -0.00000822   0.00000003           -0.35       -1.21        0.00
  -0.00000822   0.00000568   0.00000001           -1.21        0.84        0.00
   0.00000003   0.00000001  -0.00000102            0.00        0.00       -0.15


     number of scf cycles    =   5
     number of bfgs steps    =   3

     enthalpy old            =     -91.1583201364 Ry
     enthalpy new            =     -91.1583231971 Ry

     CASE: enthalpy_new < enthalpy_old

     new trust radius        =       0.0010861934 bohr
     new conv_thr            =            1.0E-10 Ry

     new unit-cell volume =    553.25939 a.u.^3 (    81.98458 Ang^3 )
     density =      1.94441 g/cm^3

CELL_PARAMETERS (bohr)
  16.127192828   1.610137362   0.002208461
   1.102252547   7.455731075   0.003602500
   0.000458658   0.000085983   4.670225828

ATOMIC_POSITIONS (crystal)
C             0.2907741054        0.5108949574        0.0709720566
C             0.4571318414        0.3443231175        0.0709605061
C             0.2071505005        0.5944917872        0.5709697412
C             0.5407568242        0.2607445965        0.5709555863
C             0.7907802956        0.0109427062        0.0709264123
C             0.0407596211        0.7607627554        0.5709438014
C             0.9571356958        0.8443645866        0.0709399162
C             0.7071541160        0.0945244932        0.5709299800



     Writing output data file ./pp.save/
     NEW-OLD atomic charge density approx. for the potential
     extrapolated charge   31.99870, renormalised to   32.00000

     total cpu time spent up to now is       40.9 secs

     Self-consistent Calculation

     iteration #  1     ecut=    40.00 Ry     beta= 0.50
     Davidson diagonalization with overlap
     ethr =  1.00E-06,  avg # of iterations =  2.0

     Threshold (ethr) on eigenvalues was too large:
     Diagonalizing with lowered threshold

     Davidson diagonalization with overlap
     ethr =  1.64E-10,  avg # of iterations =  4.0

     total cpu time spent up to now is       44.7 secs

     total energy              =     -91.15836326 Ry
     Harris-Foulkes estimate   =     -91.15994072 Ry
     estimated scf accuracy    <       0.00000007 Ry

     iteration #  2     ecut=    40.00 Ry     beta= 0.50
     Davidson diagonalization with overlap
     ethr =  2.32E-10,  avg # of iterations =  2.0

     total cpu time spent up to now is       46.4 secs

     total energy              =     -91.15836331 Ry
     Harris-Foulkes estimate   =     -91.15836332 Ry
     estimated scf accuracy    <       0.00000002 Ry

     iteration #  3     ecut=    40.00 Ry     beta= 0.50
     Davidson diagonalization with overlap
     ethr =  6.94E-11,  avg # of iterations =  1.5

     total cpu time spent up to now is       47.8 secs

     total energy              =     -91.15836331 Ry
     Harris-Foulkes estimate   =     -91.15836331 Ry
     estimated scf accuracy    <          5.4E-09 Ry

     iteration #  4     ecut=    40.00 Ry     beta= 0.50
     Davidson diagonalization with overlap
     ethr =  1.69E-11,  avg # of iterations =  2.0

     total cpu time spent up to now is       49.6 secs

     total energy              =     -91.15836331 Ry
     Harris-Foulkes estimate   =     -91.15836331 Ry
     estimated scf accuracy    <          5.4E-10 Ry

     iteration #  5     ecut=    40.00 Ry     beta= 0.50
     Davidson diagonalization with overlap
     ethr =  1.70E-12,  avg # of iterations =  2.0

     total cpu time spent up to now is       51.3 secs

     total energy              =     -91.15836331 Ry
     Harris-Foulkes estimate   =     -91.15836331 Ry
     estimated scf accuracy    <          1.8E-10 Ry

     iteration #  6     ecut=    40.00 Ry     beta= 0.50
     Davidson diagonalization with overlap
     ethr =  5.53E-13,  avg # of iterations =  2.0

     total cpu time spent up to now is       53.0 secs

     End of self-consistent calculation

          k = 0.0000 0.0000 0.0000 (  2343 PWs)   bands (ev):

   -14.0764 -12.5963 -12.5963  -8.7666  -7.7826  -1.9426  -1.9425  -1.6798
    -0.9681  -0.0728  -0.0723   0.4174   0.4174   2.4150   2.4639   3.2421
     7.2344   8.8755  11.0599  11.0618

          k =-0.0001-0.0003 0.6959 (  2367 PWs)   bands (ev):

   -13.3711 -11.9055 -11.9055  -8.1606  -7.2366  -3.3889  -2.7150  -2.7149
    -1.1016  -1.1015  -0.8604   0.1943   0.7100   0.7107   0.9873   4.0946
     6.8644   9.7798  11.4963  11.4976

          k =-0.0001-0.0007 1.3918 (  2388 PWs)   bands (ev):

   -11.2968  -9.8980  -9.8980  -8.1264  -6.4413  -6.4412  -6.3568  -4.7061
    -3.4382  -2.0158  -0.9886  -0.9886   1.4707   2.7076   2.7086   4.6770
     6.5896   8.3200   8.3215  10.4467

          k =-0.0736 0.7374-0.0000 (  2376 PWs)   bands (ev):

   -13.8562 -13.3440 -11.4559 -10.0119  -6.2684  -4.1342  -2.0717  -1.6862
    -0.7960  -0.3163   0.1361   0.9907   1.3111   1.7705   2.0309   2.1213
     8.3925  10.2188  11.3684  12.8567

          k =-0.0737 0.7371 0.6959 (  2357 PWs)   bands (ev):

   -13.1550 -12.6480 -10.7819  -9.3698  -5.8343  -4.0704  -3.1596  -2.4342
    -1.5572  -1.2359  -0.8550  -0.4465   0.3033   1.0143   1.7553   2.8122
     7.9309   9.4720  12.1884  13.0435

          k =-0.0737 0.7367 1.3918 (  2350 PWs)   bands (ev):

   -11.0934 -10.6072  -8.8952  -8.1258  -7.0943  -7.0557  -5.4328  -4.2405
    -3.6732  -2.1345  -1.3226  -0.7029   1.1364   1.4583   3.3232   3.9279
     6.6207   7.1017   9.0890   9.8208

          k =-0.0735 0.7380-1.3918 (  2348 PWs)   bands (ev):

   -11.0932 -10.6071  -8.8951  -8.1260  -7.0943  -7.0557  -5.4329  -4.2405
    -3.6732  -2.1345  -1.3227  -0.7028   1.1350   1.4576   3.3227   3.9288
     6.6212   7.1019   9.0905   9.8208

          k =-0.0736 0.7377-0.6959 (  2357 PWs)   bands (ev):

   -13.1549 -12.6480 -10.7819  -9.3698  -5.8343  -4.0704  -3.1597  -2.4342
    -1.5573  -1.2367  -0.8555  -0.4465   0.3033   1.0143   1.7546   2.8122
     7.9312   9.4725  12.1924  13.0446

          k =-0.5114 0.0756 0.0000 (  2356 PWs)   bands (ev):

   -13.7038 -13.7038 -10.7934 -10.7933  -5.2211  -5.2211  -1.2724  -1.2723
    -0.6020  -0.6019   1.0478   1.0479   1.7459   1.7461   1.7843   1.7844
     9.2859   9.2860   9.4292   9.4293

          k =-0.5114 0.0753 0.6959 (  2372 PWs)   bands (ev):

   -13.0016 -13.0016 -10.1317 -10.1316  -4.9303  -4.9302  -2.8885  -2.8885
    -0.9952  -0.9951  -0.4627  -0.4624   0.7808   0.7809   2.5426   2.5432
     8.7718   8.7719  10.3294  10.3303

          k =-0.5115 0.0749 1.3918 (  2364 PWs)   bands (ev):

   -10.9395 -10.9394  -8.4303  -8.4303  -7.2669  -7.2668  -4.8609  -4.8608
    -2.8904  -2.8904  -0.9233  -0.9232   1.7962   1.7965   3.9337   3.9346
     7.1543   7.1548   9.7040   9.7051

          k =-0.5850 0.8130 0.0000 (  2376 PWs)   bands (ev):

   -13.9667 -13.0121 -12.0064  -9.2946  -7.1745  -3.0631  -2.3381  -0.9196
    -0.9174  -0.8645  -0.1523   0.0222   0.8631   2.2430   2.3729   2.9950
     7.2975  11.7023  11.7581  11.9027

          k =-0.5850 0.8127 0.6959 (  2360 PWs)   bands (ev):

   -13.2652 -12.3180 -11.3259  -8.6713  -6.6634  -3.3505  -3.3151  -2.1122
    -1.8429  -1.4949  -0.3460  -0.1120  -0.0121   0.6477   1.0387   3.8180
     6.9158  10.6404  12.0998  12.6529

          k =-0.5851 0.8123 1.3918 (  2345 PWs)   bands (ev):

   -11.2018 -10.2881  -9.3713  -8.0844  -6.8163  -6.6339  -5.9356  -4.3448
    -3.7156  -1.7588  -1.4917  -0.7207   0.9188   2.0420   2.6317   4.2363
     6.5538   7.5658   8.3124  10.3139

          k =-0.5848 0.8136-1.3917 (  2346 PWs)   bands (ev):

   -11.2017 -10.2879  -9.3712  -8.0845  -6.8165  -6.6339  -5.9356  -4.3448
    -3.7157  -1.7588  -1.4917  -0.7207   0.9176   2.0408   2.6316   4.2372
     6.5536   7.5673   8.3125  10.3144

          k =-0.5849 0.8133-0.6959 (  2360 PWs)   bands (ev):

   -13.2652 -12.3179 -11.3259  -8.6713  -6.6634  -3.3506  -3.3151  -2.1123
    -1.8430  -1.4956  -0.3460  -0.1128  -0.0121   0.6475   1.0387   3.8176
     6.9162  10.6413  12.1003  12.6563

     the Fermi energy is     4.9113 ev

!    total energy              =     -91.15836331 Ry
     Harris-Foulkes estimate   =     -91.15836331 Ry
     estimated scf accuracy    <          1.9E-12 Ry

     The total energy is the sum of the following terms:

     one-electron contribution =     -47.45548270 Ry
     hartree contribution      =      37.63251543 Ry
     xc contribution           =     -27.96409987 Ry
     ewald contribution        =     -53.37163516 Ry
     smearing contrib. (-TS)   =       0.00033899 Ry

     convergence has been achieved in   6 iterations

     Forces acting on atoms (cartesian axes, Ry/au):

     atom    1 type  1   force =    -0.00007715   -0.00011966   -0.00002222
     atom    2 type  1   force =     0.00007164    0.00012789   -0.00000910
     atom    3 type  1   force =     0.00000062   -0.00013114   -0.00001642
     atom    4 type  1   force =     0.00001392    0.00013316   -0.00000485
     atom    5 type  1   force =    -0.00010152   -0.00011862    0.00002825
     atom    6 type  1   force =    -0.00000787    0.00013730    0.00000915
     atom    7 type  1   force =     0.00009845    0.00010994    0.00000400
     atom    8 type  1   force =     0.00000192   -0.00013887    0.00001119

     Total force =     0.000404     Total SCF correction =     0.000003


     Computing stress (Cartesian axis) and pressure

          total   stress  (Ry/bohr**3)                   (kbar)     P=        0.17
  -0.00000372  -0.00000772   0.00000002           -0.55       -1.14        0.00
  -0.00000772   0.00000550   0.00000001           -1.14        0.81        0.00
   0.00000002   0.00000001   0.00000175            0.00        0.00        0.26


     number of scf cycles    =   6
     number of bfgs steps    =   4

     enthalpy old            =     -91.1583231971 Ry
     enthalpy new            =     -91.1583257038 Ry

     CASE: enthalpy_new < enthalpy_old

     new trust radius        =       0.0016290206 bohr
     new conv_thr            =            1.0E-10 Ry

     new unit-cell volume =    553.22176 a.u.^3 (    81.97901 Ang^3 )
     density =      1.94454 g/cm^3

CELL_PARAMETERS (bohr)
  16.123222439   1.606113337   0.002207826
   1.100013482   7.456935662   0.003608545
   0.000458006   0.000089872   4.669992913

ATOMIC_POSITIONS (crystal)
C             0.2907724109        0.5108637291        0.0709634895
C             0.4571330322        0.3443563596        0.0709564579
C             0.2071433869        0.5944596438        0.5709620750
C             0.5407632389        0.2607782514        0.5709529203
C             0.7907802333        0.0109072295        0.0709343264
C             0.0407670770        0.7607954452        0.5709452771
C             0.9571362496        0.8443965842        0.0709445588
C             0.7071473711        0.0944917572        0.5709388951



     Writing output data file ./pp.save/
     NEW-OLD atomic charge density approx. for the potential
     extrapolated charge   31.99782, renormalised to   32.00000

     total cpu time spent up to now is       53.1 secs

     Self-consistent Calculation

     iteration #  1     ecut=    40.00 Ry     beta= 0.50
     Davidson diagonalization with overlap
     ethr =  1.00E-06,  avg # of iterations =  2.0

     Threshold (ethr) on eigenvalues was too large:
     Diagonalizing with lowered threshold

     Davidson diagonalization with overlap
     ethr =  4.05E-10,  avg # of iterations =  3.9

     total cpu time spent up to now is       57.9 secs

     total energy              =     -91.15836664 Ry
     Harris-Foulkes estimate   =     -91.16100833 Ry
     estimated scf accuracy    <       0.00000017 Ry

     iteration #  2     ecut=    40.00 Ry     beta= 0.50
     Davidson diagonalization with overlap
     ethr =  5.25E-10,  avg # of iterations =  2.0

     total cpu time spent up to now is       59.9 secs

     total energy              =     -91.15836680 Ry
     Harris-Foulkes estimate   =     -91.15836681 Ry
     estimated scf accuracy    <       0.00000006 Ry

     iteration #  3     ecut=    40.00 Ry     beta= 0.50
     Davidson diagonalization with overlap
     ethr =  1.77E-10,  avg # of iterations =  1.4

     total cpu time spent up to now is       61.5 secs

     total energy              =     -91.15836680 Ry
     Harris-Foulkes estimate   =     -91.15836680 Ry
     estimated scf accuracy    <       0.00000002 Ry

     iteration #  4     ecut=    40.00 Ry     beta= 0.50
     Davidson diagonalization with overlap
     ethr =  4.79E-11,  avg # of iterations =  2.0

     total cpu time spent up to now is       63.7 secs

     total energy              =     -91.15836680 Ry
     Harris-Foulkes estimate   =     -91.15836680 Ry
     estimated scf accuracy    <          1.4E-09 Ry

     iteration #  5     ecut=    40.00 Ry     beta= 0.50
     Davidson diagonalization with overlap
     ethr =  4.43E-12,  avg # of iterations =  2.0

     total cpu time spent up to now is       65.7 secs

     total energy              =     -91.15836680 Ry
     Harris-Foulkes estimate   =     -91.15836680 Ry
     estimated scf accuracy    <          4.1E-10 Ry

     iteration #  6     ecut=    40.00 Ry     beta= 0.50
     Davidson diagonalization with overlap
     ethr =  1.28E-12,  avg # of iterations =  2.0

     total cpu time spent up to now is       67.8 secs

     End of self-consistent calculation

          k = 0.0000 0.0000 0.0000 (  2343 PWs)   bands (ev):

   -14.0762 -12.5960 -12.5960  -8.7666  -7.7824  -1.9427  -1.9426  -1.6793
    -0.9666  -0.0729  -0.0725   0.4189   0.4190   2.4149   2.4654   3.2413
     7.2332   8.8761  11.0626  11.0637

          k =-0.0001-0.0003 0.6959 (  2367 PWs)   bands (ev):

   -13.3708 -11.9052 -11.9052  -8.1605  -7.2363  -3.3877  -2.7142  -2.7140
    -1.1013  -1.1012  -0.8599   0.1954   0.7100   0.7106   0.9874   4.0940
     6.8640   9.7805  11.4969  11.4978

          k =-0.0001-0.0007 1.3919 (  2388 PWs)   bands (ev):

   -11.2963  -9.8975  -9.8974  -8.1255  -6.4405  -6.4404  -6.3565  -4.7059
    -3.4375  -2.0155  -0.9886  -0.9886   1.4714   2.7079   2.7089   4.6776
     6.5893   8.3206   8.3219  10.4469

          k =-0.0734 0.7372-0.0000 (  2376 PWs)   bands (ev):

   -13.8560 -13.3437 -11.4558 -10.0118  -6.2684  -4.1344  -2.0712  -1.6863
    -0.7944  -0.3147   0.1359   0.9920   1.3126   1.7703   2.0312   2.1228
     8.3935  10.2199  11.3679  12.8595

          k =-0.0735 0.7369 0.6959 (  2357 PWs)   bands (ev):

   -13.1547 -12.6477 -10.7818  -9.3696  -5.8342  -4.0700  -3.1585  -2.4334
    -1.5563  -1.2353  -0.8549  -0.4455   0.3035   1.0144   1.7566   2.8126
     7.9320   9.4730  12.1880  13.0451

          k =-0.0736 0.7366 1.3919 (  2350 PWs)   bands (ev):

   -11.0928 -10.6066  -8.8948  -8.1250  -7.0936  -7.0553  -5.4322  -4.2398
    -3.6732  -2.1345  -1.3224  -0.7028   1.1372   1.4587   3.3243   3.9287
     6.6217   7.1028   9.0906   9.8219

          k =-0.0733 0.7379-1.3919 (  2348 PWs)   bands (ev):

   -11.0927 -10.6066  -8.8946  -8.1252  -7.0936  -7.0553  -5.4323  -4.2398
    -3.6731  -2.1345  -1.3225  -0.7028   1.1359   1.4580   3.3238   3.9296
     6.6222   7.1030   9.0921   9.8219

          k =-0.0734 0.7376-0.6959 (  2357 PWs)   bands (ev):

   -13.1546 -12.6476 -10.7817  -9.3696  -5.8341  -4.0701  -3.1586  -2.4334
    -1.5563  -1.2360  -0.8554  -0.4455   0.3034   1.0144   1.7559   2.8126
     7.9323   9.4735  12.1921  13.0461

          k =-0.5114 0.0754 0.0000 (  2356 PWs)   bands (ev):

   -13.7035 -13.7035 -10.7932 -10.7931  -5.2211  -5.2210  -1.2721  -1.2721
    -0.6005  -0.6003   1.0476   1.0478   1.7474   1.7477   1.7836   1.7838
     9.2849   9.2852   9.4303   9.4304

          k =-0.5115 0.0751 0.6960 (  2372 PWs)   bands (ev):

   -13.0013 -13.0012 -10.1314 -10.1313  -4.9300  -4.9299  -2.8875  -2.8874
    -0.9943  -0.9940  -0.4624  -0.4621   0.7809   0.7811   2.5422   2.5428
     8.7716   8.7719  10.3305  10.3315

          k =-0.5116 0.0748 1.3919 (  2364 PWs)   bands (ev):

   -10.9389 -10.9388  -8.4297  -8.4296  -7.2662  -7.2661  -4.8603  -4.8601
    -2.8903  -2.8902  -0.9231  -0.9230   1.7967   1.7971   3.9339   3.9349
     7.1546   7.1550   9.7044   9.7054

          k =-0.5849 0.8127 0.0000 (  2376 PWs)   bands (ev):

   -13.9664 -13.0119 -12.0061  -9.2946  -7.1745  -3.0632  -2.3379  -0.9186
    -0.9159  -0.8647  -0.1523   0.0237   0.8646   2.2429   2.3744   2.9961
     7.2984  11.7032  11.7559  11.9043

          k =-0.5849 0.8123 0.6960 (  2360 PWs)   bands (ev):

   -13.2649 -12.3177 -11.3256  -8.6713  -6.6632  -3.3500  -3.3139  -2.1113
    -1.8424  -1.4947  -0.3459  -0.1110  -0.0110   0.6478   1.0389   3.8191
     6.9166  10.6416  12.1009  12.6509

          k =-0.5850 0.8120 1.3919 (  2345 PWs)   bands (ev):

   -11.2012 -10.2876  -9.3707  -8.0835  -6.8156  -6.6337  -5.9348  -4.3447
    -3.7150  -1.7585  -1.4918  -0.7207   0.9193   2.0431   2.6322   4.2371
     6.5550   7.5672   8.3134  10.3154

          k =-0.5848 0.8133-1.3918 (  2346 PWs)   bands (ev):

   -11.2011 -10.2875  -9.3707  -8.0836  -6.8157  -6.6337  -5.9349  -4.3447
    -3.7152  -1.7585  -1.4918  -0.7207   0.9182   2.0419   2.6321   4.2381
     6.5548   7.5686   8.3135  10.3159

          k =-0.5848 0.8130-0.6959 (  2360 PWs)   bands (ev):

   -13.2648 -12.3177 -11.3256  -8.6712  -6.6633  -3.3500  -3.3140  -2.1114
    -1.8425  -1.4953  -0.3458  -0.1117  -0.0111   0.6476   1.0388   3.8188
     6.9170  10.6425  12.1015  12.6543

     the Fermi energy is     4.9120 ev

!    total energy              =     -91.15836680 Ry
     Harris-Foulkes estimate   =     -91.15836680 Ry
     estimated scf accuracy    <          5.0E-12 Ry

     The total energy is the sum of the following terms:

     one-electron contribution =     -47.45061343 Ry
     hartree contribution      =      37.63082363 Ry
     xc contribution           =     -27.96437160 Ry
     ewald contribution        =     -53.37454448 Ry
     smearing contrib. (-TS)   =       0.00033908 Ry

     convergence has been achieved in   6 iterations

     Forces acting on atoms (cartesian axes, Ry/au):

     atom    1 type  1   force =    -0.00010416   -0.00006793   -0.00001300
     atom    2 type  1   force =     0.00009856    0.00007547   -0.00000804
     atom    3 type  1   force =     0.00009130   -0.00009130   -0.00001124
     atom    4 type  1   force =    -0.00005971    0.00008870    0.00000115
     atom    5 type  1   force =    -0.00016810   -0.00004758    0.00002923
     atom    6 type  1   force =    -0.00011250    0.00010131    0.00001365
     atom    7 type  1   force =     0.00016306    0.00004461   -0.00000678
     atom    8 type  1   force =     0.00009155   -0.00010328   -0.00000496

     Total force =     0.000402     Total SCF correction =     0.000004


     Computing stress (Cartesian axis) and pressure

          total   stress  (Ry/bohr**3)                   (kbar)     P=        0.28
  -0.00000404  -0.00000765   0.00000006           -0.59       -1.13        0.01
  -0.00000765   0.00000541  -0.00000000           -1.13        0.80       -0.00
   0.00000006  -0.00000000   0.00000442            0.01       -0.00        0.65


     number of scf cycles    =   7
     number of bfgs steps    =   5

     enthalpy old            =     -91.1583257038 Ry
     enthalpy new            =     -91.1583291906 Ry

     CASE: enthalpy_new < enthalpy_old

     new trust radius        =       0.0024440129 bohr
     new conv_thr            =            1.0E-10 Ry

     new unit-cell volume =    553.17947 a.u.^3 (    81.97274 Ang^3 )
     density =      1.94469 g/cm^3

CELL_PARAMETERS (bohr)
  16.117254334   1.600084889   0.002220568
   1.096659145   7.458727258   0.003616141
   0.000461090   0.000094119   4.669779006

ATOMIC_POSITIONS (crystal)
C             0.2907703995        0.5108215368        0.0709528006
C             0.4571342532        0.3444015418        0.0709502904
C             0.2071349166        0.5944175684        0.5709512825
C             0.5407716455        0.2608217677        0.5709503888
C             0.7907780787        0.0108616788        0.0709464345
C             0.0407750505        0.7608391731        0.5709485419
C             0.9571391442        0.8444374426        0.0709492635
C             0.7071395119        0.0944482909        0.5709489977



     Writing output data file ./pp.save/
     NEW-OLD atomic charge density approx. for the potential
     extrapolated charge   31.99755, renormalised to   32.00000

     total cpu time spent up to now is       68.0 secs

     Self-consistent Calculation

     iteration #  1     ecut=    40.00 Ry     beta= 0.50
     Davidson diagonalization with overlap
     ethr =  1.00E-06,  avg # of iterations =  2.0

     Threshold (ethr) on eigenvalues was too large:
     Diagonalizing with lowered threshold

     Davidson diagonalization with overlap
     ethr =  6.27E-10,  avg # of iterations =  3.8

     total cpu time spent up to now is       73.5 secs

     total energy              =     -91.15837159 Ry
     Harris-Foulkes estimate   =     -91.16134027 Ry
     estimated scf accuracy    <       0.00000026 Ry

     iteration #  2     ecut=    40.00 Ry     beta= 0.50
     Davidson diagonalization with overlap
     ethr =  8.17E-10,  avg # of iterations =  2.0

     total cpu time spent up to now is       75.9 secs

     total energy              =     -91.15837178 Ry
     Harris-Foulkes estimate   =     -91.15837179 Ry
     estimated scf accuracy    <       0.00000009 Ry

     iteration #  3     ecut=    40.00 Ry     beta= 0.50
     Davidson diagonalization with overlap
     ethr =  2.68E-10,  avg # of iterations =  1.3

     total cpu time spent up to now is       77.8 secs

     total energy              =     -91.15837178 Ry
     Harris-Foulkes estimate   =     -91.15837178 Ry
     estimated scf accuracy    <       0.00000002 Ry

     iteration #  4     ecut=    40.00 Ry     beta= 0.50
     Davidson diagonalization with overlap
     ethr =  6.80E-11,  avg # of iterations =  2.0

     total cpu time spent up to now is       80.3 secs

     total energy              =     -91.15837178 Ry
     Harris-Foulkes estimate   =     -91.15837178 Ry
     estimated scf accuracy    <          2.3E-09 Ry

     iteration #  5     ecut=    40.00 Ry     beta= 0.50
     Davidson diagonalization with overlap
     ethr =  7.14E-12,  avg # of iterations =  2.0

     total cpu time spent up to now is       82.7 secs

     total energy              =     -91.15837178 Ry
     Harris-Foulkes estimate   =     -91.15837178 Ry
     estimated scf accuracy    <          7.2E-10 Ry

     iteration #  6     ecut=    40.00 Ry     beta= 0.50
     Davidson diagonalization with overlap
     ethr =  2.24E-12,  avg # of iterations =  2.0

     total cpu time spent up to now is       85.1 secs

     End of self-consistent calculation

          k = 0.0000 0.0000 0.0000 (  2343 PWs)   bands (ev):

   -14.0757 -12.5956 -12.5955  -8.7663  -7.7820  -1.9426  -1.9426  -1.6787
    -0.9649  -0.0730  -0.0729   0.4206   0.4206   2.4148   2.4670   3.2401
     7.2314   8.8769  11.0664  11.0666

          k =-0.0001-0.0003 0.6960 (  2367 PWs)   bands (ev):

   -13.3703 -11.9047 -11.9047  -8.1602  -7.2357  -3.3864  -2.7132  -2.7131
    -1.1008  -1.1007  -0.8592   0.1967   0.7099   0.7105   0.9876   4.0928
     6.8632   9.7814  11.4972  11.4977

          k =-0.0001-0.0007 1.3919 (  2388 PWs)   bands (ev):

   -11.2955  -9.8968  -9.8967  -8.1244  -6.4396  -6.4395  -6.3560  -4.7055
    -3.4367  -2.0150  -0.9885  -0.9884   1.4723   2.7081   2.7091   4.6784
     6.5885   8.3209   8.3221  10.4468

          k =-0.0732 0.7370-0.0000 (  2376 PWs)   bands (ev):

   -13.8555 -13.3432 -11.4556 -10.0115  -6.2684  -4.1345  -2.0703  -1.6863
    -0.7927  -0.3130   0.1358   0.9939   1.3142   1.7702   2.0316   2.1244
     8.3949  10.2212  11.3671  12.8623

          k =-0.0732 0.7366 0.6960 (  2357 PWs)   bands (ev):

   -13.1542 -12.6471 -10.7815  -9.3693  -5.8340  -4.0696  -3.1572  -2.4325
    -1.5552  -1.2343  -0.8549  -0.4444   0.3036   1.0146   1.7585   2.8131
     7.9334   9.4741  12.1873  13.0467

          k =-0.0733 0.7363 1.3919 (  2350 PWs)   bands (ev):

   -11.0921 -10.6059  -8.8942  -8.1241  -7.0927  -7.0548  -5.4314  -4.2391
    -3.6730  -2.1344  -1.3222  -0.7027   1.1383   1.4590   3.3258   3.9296
     6.6229   7.1041   9.0926   9.8231

          k =-0.0730 0.7376-1.3919 (  2348 PWs)   bands (ev):

   -11.0920 -10.6058  -8.8940  -8.1242  -7.0926  -7.0548  -5.4315  -4.2391
    -3.6729  -2.1345  -1.3222  -0.7026   1.1369   1.4584   3.3252   3.9305
     6.6234   7.1044   9.0941   9.8231

          k =-0.0731 0.7373-0.6960 (  2357 PWs)   bands (ev):

   -13.1541 -12.6470 -10.7815  -9.3693  -5.8340  -4.0697  -3.1573  -2.4325
    -1.5553  -1.2351  -0.8553  -0.4444   0.3036   1.0146   1.7578   2.8131
     7.9338   9.4747  12.1914  13.0478

          k =-0.5116 0.0752 0.0000 (  2356 PWs)   bands (ev):

   -13.7031 -13.7030 -10.7928 -10.7927  -5.2209  -5.2208  -1.2717  -1.2717
    -0.5987  -0.5987   1.0476   1.0477   1.7491   1.7492   1.7827   1.7828
     9.2834   9.2836   9.4318   9.4319

          k =-0.5116 0.0749 0.6960 (  2372 PWs)   bands (ev):

   -13.0008 -13.0007 -10.1309 -10.1308  -4.9296  -4.9295  -2.8863  -2.8862
    -0.9931  -0.9930  -0.4619  -0.4616   0.7812   0.7813   2.5414   2.5420
     8.7712   8.7713  10.3321  10.3331

          k =-0.5117 0.0746 1.3920 (  2364 PWs)   bands (ev):

   -10.9382 -10.9381  -8.4288  -8.4287  -7.2654  -7.2653  -4.8594  -4.8592
    -2.8900  -2.8900  -0.9228  -0.9227   1.7974   1.7977   3.9341   3.9350
     7.1546   7.1551   9.7043   9.7054

          k =-0.5847 0.8122 0.0000 (  2376 PWs)   bands (ev):

   -13.9659 -13.0116 -12.0057  -9.2946  -7.1744  -3.0633  -2.3376  -0.9172
    -0.9142  -0.8649  -0.1523   0.0253   0.8663   2.2428   2.3759   2.9976
     7.2997  11.7042  11.7525  11.9066

          k =-0.5848 0.8119 0.6960 (  2360 PWs)   bands (ev):

   -13.2643 -12.3173 -11.3251  -8.6712  -6.6630  -3.3493  -3.3125  -2.1103
    -1.8418  -1.4943  -0.3457  -0.1095  -0.0099   0.6479   1.0391   3.8207
     6.9177  10.6430  12.1020  12.6478

          k =-0.5849 0.8115 1.3920 (  2345 PWs)   bands (ev):

   -11.2004 -10.2870  -9.3700  -8.0824  -6.8148  -6.6334  -5.9339  -4.3444
    -3.7144  -1.7582  -1.4917  -0.7206   0.9199   2.0446   2.6327   4.2382
     6.5565   7.5688   8.3144  10.3171

          k =-0.5846 0.8128-1.3919 (  2346 PWs)   bands (ev):

   -11.2003 -10.2868  -9.3700  -8.0825  -6.8149  -6.6334  -5.9340  -4.3444
    -3.7145  -1.7582  -1.4917  -0.7207   0.9188   2.0434   2.6326   4.2391
     6.5563   7.5702   8.3145  10.3177

          k =-0.5847 0.8125-0.6959 (  2360 PWs)   bands (ev):

   -13.2642 -12.3173 -11.3251  -8.6711  -6.6630  -3.3493  -3.3126  -2.1103
    -1.8418  -1.4950  -0.3457  -0.1102  -0.0100   0.6477   1.0391   3.8204
     6.9181  10.6438  12.1026  12.6512

     the Fermi energy is     4.9127 ev

!    total energy              =     -91.15837178 Ry
     Harris-Foulkes estimate   =     -91.15837178 Ry
     estimated scf accuracy    <          5.5E-12 Ry

     The total energy is the sum of the following terms:

     one-electron contribution =     -47.44132942 Ry
     hartree contribution      =      37.62701266 Ry
     xc contribution           =     -27.96454189 Ry
     ewald contribution        =     -53.37985235 Ry
     smearing contrib. (-TS)   =       0.00033923 Ry

     convergence has been achieved in   6 iterations

     Forces acting on atoms (cartesian axes, Ry/au):

     atom    1 type  1   force =    -0.00015477    0.00001152   -0.00000868
[...]
     density =      1.93598 g/cm^3

CELL_PARAMETERS (bohr)
  14.011252224   0.245294406   0.001995786
   0.153712728   8.491549318   0.003631651
   0.000563926   0.000005798   4.671870875

ATOMIC_POSITIONS (crystal)
C             0.2907771997        0.5108063207        0.0708528627
C             0.4571076520        0.3443666421        0.0709041439
C             0.2071177001        0.5944381656        0.5708624053
C             0.5407716089        0.2607920338        0.5709262902
C             0.7908054374        0.0108981493        0.0710481118
C             0.0407918021        0.7608164614        0.5709745334
C             0.9571297762        0.8444506307        0.0709932340
C             0.7071418237        0.0944805963        0.5710364186



     Writing output data file ./pp.save/
     NEW-OLD atomic charge density approx. for the potential
     extrapolated charge   32.01509, renormalised to   32.00000

     total cpu time spent up to now is     1949.7 secs

     Self-consistent Calculation

     iteration #  1     ecut=    40.00 Ry     beta= 0.50
     Davidson diagonalization with overlap
     ethr =  1.00E-06,  avg # of iterations =  2.1

     Threshold (ethr) on eigenvalues was too large:
     Diagonalizing with lowered threshold

     Davidson diagonalization with overlap
     ethr =  9.76E-09,  avg # of iterations =  3.6

     total cpu time spent up to now is     1982.1 secs

     total energy              =     -91.16002749 Ry
     Harris-Foulkes estimate   =     -91.14144178 Ry
     estimated scf accuracy    <       0.00000329 Ry

     iteration #  2     ecut=    40.00 Ry     beta= 0.50
     Davidson diagonalization with overlap
     ethr =  1.03E-08,  avg # of iterations =  3.0

     total cpu time spent up to now is     1999.6 secs

     total energy              =     -91.16003412 Ry
     Harris-Foulkes estimate   =     -91.16003485 Ry
     estimated scf accuracy    <       0.00000245 Ry

     iteration #  3     ecut=    40.00 Ry     beta= 0.50
     Davidson diagonalization with overlap
     ethr =  7.65E-09,  avg # of iterations =  1.0

     total cpu time spent up to now is     2009.8 secs

     total energy              =     -91.16003366 Ry
     Harris-Foulkes estimate   =     -91.16003419 Ry
     estimated scf accuracy    <       0.00000090 Ry

     iteration #  4     ecut=    40.00 Ry     beta= 0.50
     Davidson diagonalization with overlap
     ethr =  2.82E-09,  avg # of iterations =  2.0

     total cpu time spent up to now is     2024.1 secs

     total energy              =     -91.16003387 Ry
     Harris-Foulkes estimate   =     -91.16003389 Ry
     estimated scf accuracy    <       0.00000007 Ry

     iteration #  5     ecut=    40.00 Ry     beta= 0.50
     Davidson diagonalization with overlap
     ethr =  2.27E-10,  avg # of iterations =  1.0

     total cpu time spent up to now is     2034.1 secs

     total energy              =     -91.16003386 Ry
     Harris-Foulkes estimate   =     -91.16003387 Ry
     estimated scf accuracy    <       0.00000003 Ry

     iteration #  6     ecut=    40.00 Ry     beta= 0.50
     Davidson diagonalization with overlap
     ethr =  8.50E-11,  avg # of iterations =  1.0

     total cpu time spent up to now is     2044.3 secs

     total energy              =     -91.16003386 Ry
     Harris-Foulkes estimate   =     -91.16003386 Ry
     estimated scf accuracy    <          8.6E-09 Ry

     iteration #  7     ecut=    40.00 Ry     beta= 0.50
     Davidson diagonalization with overlap
     ethr =  2.69E-11,  avg # of iterations =  2.0

     total cpu time spent up to now is     2059.0 secs

     total energy              =     -91.16003386 Ry
     Harris-Foulkes estimate   =     -91.16003386 Ry
     estimated scf accuracy    <          2.2E-10 Ry

     iteration #  8     ecut=    40.00 Ry     beta= 0.50
     Davidson diagonalization with overlap
     ethr =  6.89E-13,  avg # of iterations =  2.3

     total cpu time spent up to now is     2074.3 secs

     End of self-consistent calculation

          k = 0.0000 0.0000 0.0000 (  2343 PWs)   bands (ev):

   -14.1125 -12.6014 -12.6009  -8.7695  -7.7938  -1.9936  -1.9930  -1.7298
    -1.0106  -0.4725  -0.4718   0.3785   0.3789   2.3631   2.4256   2.8608
     6.7398   8.8192  12.2942  12.2961

          k =-0.0001-0.0003 0.6956 (  2367 PWs)   bands (ev):

   -13.4077 -11.9128 -11.9123  -8.1662  -7.2518  -3.4285  -2.7528  -2.7522
    -1.1449  -1.1444  -0.9120   0.1621   0.3245   0.3254   0.9430   3.7224
     6.5223   9.7239  11.3834  11.3846

          k =-0.0002-0.0006 1.3913 (  2388 PWs)   bands (ev):

   -11.3347  -9.9114  -9.9108  -8.1648  -6.4635  -6.4630  -6.3695  -4.7271
    -3.4603  -2.0466  -1.0352  -1.0347   1.4114   2.3790   2.3803   4.5655
     6.2466   7.9884   7.9905  10.1662

          k =-0.0112 0.6381 0.0000 (  2376 PWs)   bands (ev):

   -13.9077 -13.3755 -11.5167 -10.0856  -6.2888  -4.2060  -1.9744  -1.7857
    -0.8407  -0.3581   0.1039   1.2111   1.2653   1.7221   2.0759   2.2942
     8.1541  10.5611  10.6395  12.1660

          k =-0.0113 0.6378 0.6956 (  2357 PWs)   bands (ev):

   -13.2063 -12.6804 -10.8419  -9.4418  -5.8592  -4.1327  -3.2032  -2.4802
    -1.6060  -1.1436  -0.9527  -0.4994   0.2662   0.9720   1.9581   3.0677
     7.7441   9.6083  11.4889  13.0808

          k =-0.0114 0.6375 1.3913 (  2350 PWs)   bands (ev):

   -11.1442 -10.6423  -8.9521  -8.1846  -7.1335  -7.1115  -5.4864  -4.2995
    -3.7018  -2.1922  -1.3587  -0.7497   1.2133   1.3744   3.4001   4.0588
     6.6723   7.1605   9.2071   9.9430

          k =-0.0110 0.6387-1.3913 (  2348 PWs)   bands (ev):

   -11.1441 -10.6423  -8.9521  -8.1847  -7.1333  -7.1117  -5.4864  -4.2994
    -3.7018  -2.1922  -1.3586  -0.7496   1.2119   1.3745   3.4001   4.0602
     6.6735   7.1606   9.2070   9.9416

          k =-0.0111 0.6384-0.6956 (  2357 PWs)   bands (ev):

   -13.2062 -12.6804 -10.8419  -9.4419  -5.8593  -4.1326  -3.2033  -2.4802
    -1.6061  -1.1444  -0.9527  -0.4993   0.2663   0.9720   1.9581   3.0684
     7.7450   9.6083  11.4924  13.0806

          k =-0.5801 0.0105 0.0001 (  2356 PWs)   bands (ev):

   -13.7295 -13.7295 -10.7884 -10.7878  -5.2534  -5.2531  -1.4443  -1.4440
    -0.6433  -0.6427   0.9935   0.9945   1.2918   1.2922   1.7078   1.7090
     9.0590   9.0599   9.7765   9.7770

          k =-0.5802 0.0102 0.6957 (  2372 PWs)   bands (ev):

   -13.0283 -13.0283 -10.1296 -10.1290  -4.9651  -4.9648  -2.9251  -2.9247
    -1.0268  -1.0259  -0.6313  -0.6306   0.7328   0.7337   2.0702   2.0708
     8.6189   8.6198  10.6621  10.6643

          k =-0.5803 0.0099 1.3914 (  2364 PWs)   bands (ev):

   -10.9689 -10.9688  -8.4443  -8.4437  -7.2925  -7.2925  -4.8783  -4.8775
    -2.9264  -2.9261  -0.9653  -0.9647   1.6339   1.6348   3.6242   3.6251
     6.9025   6.9037   9.3559   9.3570

          k =-0.5912 0.6486 0.0001 (  2376 PWs)   bands (ev):

   -13.9999 -13.0781 -12.0572  -9.3366  -7.2542  -3.0809  -2.4202  -0.9595
    -0.9202  -0.6529  -0.0805  -0.0244   0.8194   2.1981   2.3286   3.0616
     7.6542  10.5089  11.3576  12.1443

          k =-0.5913 0.6483 0.6957 (  2360 PWs)   bands (ev):

   -13.2991 -12.3829 -11.3766  -8.7135  -6.7400  -3.3890  -3.3558  -2.1620
    -1.8768  -1.5760  -0.3941  -0.0566   0.1404   0.7152   0.9885   3.8665
     7.1444  10.4994  11.3923  12.1784

          k =-0.5914 0.6480 1.3914 (  2345 PWs)   bands (ev):

   -11.2378 -10.3505  -9.4226  -8.1250  -6.8718  -6.6799  -5.9838  -4.4082
    -3.7606  -1.8168  -1.5223  -0.7623   0.8430   2.2345   2.6971   4.1759
     6.6732   7.6870   8.3932  10.3664

          k =-0.5911 0.6492-1.3912 (  2346 PWs)   bands (ev):

   -11.2377 -10.3504  -9.4227  -8.1252  -6.8719  -6.6799  -5.9837  -4.4082
    -3.7606  -1.8168  -1.5223  -0.7623   0.8420   2.2335   2.6980   4.1769
     6.6741   7.6882   8.3919  10.3655

          k =-0.5911 0.6489-0.6956 (  2360 PWs)   bands (ev):

   -13.2990 -12.3829 -11.3766  -8.7136  -6.7400  -3.3891  -3.3559  -2.1619
    -1.8767  -1.5766  -0.3941  -0.0565   0.1399   0.7157   0.9885   3.8669
     7.1450  10.4999  11.3941  12.1777

     the Fermi energy is     4.7769 ev

!    total energy              =     -91.16003386 Ry
     Harris-Foulkes estimate   =     -91.16003386 Ry
     estimated scf accuracy    <          6.5E-12 Ry

     The total energy is the sum of the following terms:

     one-electron contribution =     -48.12694851 Ry
     hartree contribution      =      37.91485073 Ry
     xc contribution           =     -27.95800471 Ry
     ewald contribution        =     -52.99044660 Ry
     smearing contrib. (-TS)   =       0.00051524 Ry

     convergence has been achieved in   8 iterations

     Forces acting on atoms (cartesian axes, Ry/au):

     atom    1 type  1   force =    -0.00006869   -0.00008003    0.00009203
     atom    2 type  1   force =    -0.00002175    0.00018212    0.00004616
     atom    3 type  1   force =     0.00023061   -0.00010820    0.00007547
     atom    4 type  1   force =     0.00000730   -0.00006210    0.00001426
     atom    5 type  1   force =    -0.00001616   -0.00015723   -0.00010807
     atom    6 type  1   force =    -0.00025780    0.00011854   -0.00003426
     atom    7 type  1   force =     0.00011981    0.00006024   -0.00002468
     atom    8 type  1   force =     0.00000667    0.00004667   -0.00006091

     Total force =     0.000522     Total SCF correction =     0.000002


     Computing stress (Cartesian axis) and pressure

          total   stress  (Ry/bohr**3)                   (kbar)     P=        0.05
   0.00000089  -0.00000035  -0.00000009            0.13       -0.05       -0.01
  -0.00000035   0.00000037  -0.00000003           -0.05        0.05       -0.00
  -0.00000009  -0.00000003  -0.00000017           -0.01       -0.00       -0.03


     bfgs converged in  34 scf cycles and  32 bfgs steps
     (criteria: energy <  1.0E-04 Ry, force <  1.0E-03Ry/Bohr, cell <  5.0E-01kbar)

     End of BFGS Geometry Optimization

     Final enthalpy =     -91.1599960874 Ry
Begin final coordinates
     new unit-cell volume =    555.67014 a.u.^3 (    82.34182 Ang^3 )
     density =      1.93598 g/cm^3

CELL_PARAMETERS (bohr)
  14.011252224   0.245294406   0.001995786
   0.153712728   8.491549318   0.003631651
   0.000563926   0.000005798   4.671870875

ATOMIC_POSITIONS (crystal)
C             0.2907771997        0.5108063207        0.0708528627
C             0.4571076520        0.3443666421        0.0709041439
C             0.2071177001        0.5944381656        0.5708624053
C             0.5407716089        0.2607920338        0.5709262902
C             0.7908054374        0.0108981493        0.0710481118
C             0.0407918021        0.7608164614        0.5709745334
C             0.9571297762        0.8444506307        0.0709932340
C             0.7071418237        0.0944805963        0.5710364186
End final coordinates



     Writing output data file ./pp.save/

     Final scf calculation at the relaxed structure.
     The G-vectors are recalculated for the final unit cell
     Results may differ from those at the preceding step.
 
     Parallelization info
     --------------------
     sticks:   dense  smooth     PW     G-vecs:    dense   smooth      PW
     Min          15      15      4                  197      197      32
     Max          16      16      5                  200      200      35
     Sum        1521    1521    459                19017    19017    3169
 


     bravais-lattice index     =            0
     lattice parameter (alat)  =      16.2499  a.u.
     unit-cell volume          =     555.6701 (a.u.)^3
     number of atoms/cell      =            8
     number of atomic types    =            1
     number of electrons       =        32.00
     number of Kohn-Sham states=           20
     kinetic-energy cutoff     =      40.0000  Ry
     charge density cutoff     =     160.0000  Ry
     convergence threshold     =      1.0E-10
     mixing beta               =       0.5000
     number of iterations used =            8  plain     mixing
     Exchange-correlation=  SLA  PW   PBE  PBE
                           (   1   4   3   4   0   0   0)

     celldm(1)=  16.249917  celldm(2)=   0.000000  celldm(3)=   0.000000
     celldm(4)=   0.000000  celldm(5)=   0.000000  celldm(6)=   0.000000

     crystal axes: (cart. coord. in units of alat)
               a(1) = (   0.862235   0.015095   0.000123 )  
               a(2) = (   0.009459   0.522560   0.000223 )  
               a(3) = (   0.000035   0.000000   0.287501 )  

     reciprocal axes: (cart. coord. in units 2 pi/alat)
               b(1) = (  1.160144 -0.021001 -0.000140 )  
               b(2) = ( -0.033513  1.914264  0.000002 )  
               b(3) = ( -0.000470 -0.001479  3.478246 )  


     PseudoPot. # 1 for C  read from file:
     ./C.pbe-van_bm.upf
     MD5 check sum: 1a69bf6b8db32088f5b2163dbdb77a27
     Pseudo is Ultrasoft, Zval =  4.0
     Generated by new atomic code, or converted to UPF format
     Using radial grid of  721 points,  4 beta functions with: 
                l(1) =   0
                l(2) =   0
                l(3) =   1
                l(4) =   1
     Q(r) pseudized with  8 coefficients,  rinner =    0.800   0.800   0.800


     atomic species   valence    mass     pseudopotential
        C              4.00    12.00000     C ( 1.00)

     No symmetry found



   Cartesian axes

     site n.     atom                  positions (alat units)
         1           C   tau(   1) = (   0.2555527   0.2713161   0.0205202  )
         2           C   tau(   2) = (   0.3973943   0.1868522   0.0205181  )
         3           C   tau(   3) = (   0.1842270   0.3137560   0.1642819  )
         4           C   tau(   4) = (   0.4687591   0.1444426   0.1642667  )
         5           C   tau(   5) = (   0.6819659   0.0176323   0.0205260  )
         6           C   tau(   6) = (   0.0423887   0.3981879   0.1643309  )
         7           C   tau(   7) = (   0.8332615   0.4557238   0.0207169  )
         8           C   tau(   8) = (   0.6106362   0.0600463   0.1642816  )

     number of k points=    16  Marzari-Vanderbilt smearing, width (Ry)=  0.0200
                       cart. coord. in units 2pi/alat
        k(    1) = (   0.0000000   0.0000000   0.0000000), wk =   0.0666667
        k(    2) = (  -0.0000939  -0.0002958   0.6956492), wk =   0.1333333
        k(    3) = (  -0.0001878  -0.0005916   1.3912985), wk =   0.1333333
        k(    4) = (  -0.0111710   0.6380880   0.0000006), wk =   0.1333333
        k(    5) = (  -0.0112649   0.6377922   0.6956498), wk =   0.1333333
        k(    6) = (  -0.0113588   0.6374964   1.3912990), wk =   0.1333333
        k(    7) = (  -0.0109832   0.6386797  -1.3912979), wk =   0.1333333
        k(    8) = (  -0.0110771   0.6383838  -0.6956487), wk =   0.1333333
        k(    9) = (  -0.5800719   0.0105003   0.0000700), wk =   0.0666667
        k(   10) = (  -0.5801658   0.0102045   0.6957192), wk =   0.1333333
        k(   11) = (  -0.5802598   0.0099087   1.3913685), wk =   0.1333333
        k(   12) = (  -0.5912429   0.6485884   0.0000706), wk =   0.1333333
        k(   13) = (  -0.5913368   0.6482926   0.6957198), wk =   0.1333333
        k(   14) = (  -0.5914307   0.6479967   1.3913690), wk =   0.1333333
        k(   15) = (  -0.5910551   0.6491800  -1.3912279), wk =   0.1333333
        k(   16) = (  -0.5911490   0.6488842  -0.6955787), wk =   0.1333333

     Dense  grid:    19017 G-vectors     FFT dimensions: (  60,  36,  20)

     Estimated max dynamical RAM per process >       1.71 MB

     Estimated total dynamical RAM >     164.34 MB

     Initial potential from superposition of free atoms

     starting charge   31.99968, renormalised to   32.00000
     Starting wfcs are   32 randomized atomic wfcs

     total cpu time spent up to now is     2079.3 secs

     Self-consistent Calculation

     iteration #  1     ecut=    40.00 Ry     beta= 0.50
     Davidson diagonalization with overlap
     c_bands:  1 eigenvalues not converged
     c_bands:  1 eigenvalues not converged
     c_bands:  2 eigenvalues not converged
     c_bands:  2 eigenvalues not converged
     c_bands:  1 eigenvalues not converged
     c_bands:  1 eigenvalues not converged
     c_bands:  1 eigenvalues not converged
     ethr =  1.00E-06,  avg # of iterations = 14.5

     total cpu time spent up to now is     2136.3 secs

     total energy              =     -91.11986324 Ry
     Harris-Foulkes estimate   =     -91.50261816 Ry
     estimated scf accuracy    <       0.78567212 Ry

     iteration #  2     ecut=    40.00 Ry     beta= 0.50
     Davidson diagonalization with overlap
     ethr =  2.46E-03,  avg # of iterations =  2.2

     total cpu time spent up to now is     2148.3 secs

     total energy              =     -91.14770935 Ry
     Harris-Foulkes estimate   =     -91.17907454 Ry
     estimated scf accuracy    <       0.07011076 Ry

     iteration #  3     ecut=    40.00 Ry     beta= 0.50
     Davidson diagonalization with overlap
     ethr =  2.19E-04,  avg # of iterations =  2.8

     total cpu time spent up to now is     2162.7 secs

     total energy              =     -91.15885259 Ry
     Harris-Foulkes estimate   =     -91.15879566 Ry
     estimated scf accuracy    <       0.00188010 Ry

     iteration #  4     ecut=    40.00 Ry     beta= 0.50
     Davidson diagonalization with overlap
     ethr =  5.88E-06,  avg # of iterations =  3.4

     total cpu time spent up to now is     2179.4 secs

     total energy              =     -91.15908387 Ry
     Harris-Foulkes estimate   =     -91.15913736 Ry
     estimated scf accuracy    <       0.00014791 Ry

     iteration #  5     ecut=    40.00 Ry     beta= 0.50
     Davidson diagonalization with overlap
     ethr =  4.62E-07,  avg # of iterations =  2.1

     total cpu time spent up to now is     2192.1 secs

     total energy              =     -91.15911639 Ry
     Harris-Foulkes estimate   =     -91.15911719 Ry
     estimated scf accuracy    <       0.00000484 Ry

     iteration #  6     ecut=    40.00 Ry     beta= 0.50
     Davidson diagonalization with overlap
     ethr =  1.51E-08,  avg # of iterations =  2.4

     total cpu time spent up to now is     2205.2 secs

     total energy              =     -91.15911743 Ry
     Harris-Foulkes estimate   =     -91.15911767 Ry
     estimated scf accuracy    <       0.00000124 Ry

     iteration #  7     ecut=    40.00 Ry     beta= 0.50
     Davidson diagonalization with overlap
     ethr =  3.88E-09,  avg # of iterations =  2.0

     total cpu time spent up to now is     2218.0 secs

     total energy              =     -91.15911761 Ry
     Harris-Foulkes estimate   =     -91.15911761 Ry
     estimated scf accuracy    <       0.00000002 Ry

     iteration #  8     ecut=    40.00 Ry     beta= 0.50
     Davidson diagonalization with overlap
     ethr =  4.94E-11,  avg # of iterations =  3.1

     total cpu time spent up to now is     2234.7 secs

     total energy              =     -91.15911762 Ry
     Harris-Foulkes estimate   =     -91.15911762 Ry
     estimated scf accuracy    <          2.4E-09 Ry

     iteration #  9     ecut=    40.00 Ry     beta= 0.50
     Davidson diagonalization with overlap
     ethr =  7.65E-12,  avg # of iterations =  2.0

     total cpu time spent up to now is     2246.7 secs

     total energy              =     -91.15911762 Ry
     Harris-Foulkes estimate   =     -91.15911762 Ry
     estimated scf accuracy    <          6.3E-10 Ry

     iteration # 10     ecut=    40.00 Ry     beta= 0.50
     Davidson diagonalization with overlap
     ethr =  1.96E-12,  avg # of iterations =  1.9

     total cpu time spent up to now is     2258.2 secs

     total energy              =     -91.15911762 Ry
     Harris-Foulkes estimate   =     -91.15911762 Ry
     estimated scf accuracy    <          1.2E-10 Ry

     iteration # 11     ecut=    40.00 Ry     beta= 0.50
     Davidson diagonalization with overlap
