
     Program PWSCF v.6.5 starts on  9Jul2022 at  7: 5: 7 

     This program is part of the open-source Quantum ESPRESSO suite
     for quantum simulation of materials; please cite
         "P. Giannozzi et al., J. Phys.:Condens. Matter 21 395502 (2009);
         "P. Giannozzi et al., J. Phys.:Condens. Matter 29 465901 (2017);
          URL http://www.quantum-espresso.org", 
     in publications or presentations arising from this work. More details at
     http://www.quantum-espresso.org/quote

     Parallel version (MPI), running on    96 processors

     MPI processes distributed on     2 nodes
     R & G space division:  proc/nbgrp/npool/nimage =      96
     Waiting for input...
     Reading input from standard input
     Message from routine read_cards :
     DEPRECATED: no units specified in CELL_PARAMETERS card

     Current dimensions of program PWSCF are:
     Max number of different atomic species (ntypx) = 10
     Max number of k-points (npk) =  40000
     Max angular momentum in pseudopotentials (lmaxx) =  3

     Subspace diagonalization in iterative solution of the eigenvalue problem:
     one sub-group per band group will be used
     scalapack distributed-memory algorithm (size of sub-group:  9*  9 procs)

 
     Parallelization info
     --------------------
     sticks:   dense  smooth     PW     G-vecs:    dense   smooth      PW
     Min          16      16      4                  202      202      32
     Max          17      17      5                  205      205      35
     Sum        1559    1559    471                19557    19557    3241
 


     bravais-lattice index     =            0
     lattice parameter (alat)  =      13.9026  a.u.
     unit-cell volume          =     572.3689 (a.u.)^3
     number of atoms/cell      =            8
     number of atomic types    =            1
     number of electrons       =        32.00
     number of Kohn-Sham states=           20
     kinetic-energy cutoff     =      40.0000  Ry
     charge density cutoff     =     160.0000  Ry
     convergence threshold     =      1.0E-08
     mixing beta               =       0.5000
     number of iterations used =            8  plain     mixing
     Exchange-correlation=  SLA  PW   PBE  PBE
                           (   1   4   3   4   0   0   0)
     nstep                     =          250


     celldm(1)=  13.902624  celldm(2)=   0.000000  celldm(3)=   0.000000
     celldm(4)=   0.000000  celldm(5)=   0.000000  celldm(6)=   0.000000

     crystal axes: (cart. coord. in units of alat)
               a(1) = (   0.999912   0.013271   0.000014 )  
               a(2) = (   0.017457   0.636470   0.000237 )  
               a(3) = (   0.000050  -0.000036   0.334814 )  

     reciprocal axes: (cart. coord. in units 2 pi/alat)
               b(1) = (  1.000452 -0.027440 -0.000153 )  
               b(2) = ( -0.020860  1.571739  0.000172 )  
               b(3) = ( -0.000028 -0.001113  2.986728 )  


     PseudoPot. # 1 for C  read from file:
     ./C.pbe-van_bm.upf
     MD5 check sum: 1a69bf6b8db32088f5b2163dbdb77a27
     Pseudo is Ultrasoft, Zval =  4.0
     Generated by new atomic code, or converted to UPF format
     Using radial grid of  721 points,  4 beta functions with: 
                l(1) =   0
                l(2) =   0
                l(3) =   1
                l(4) =   1
     Q(r) pseudized with  8 coefficients,  rinner =    0.800   0.800   0.800


     atomic species   valence    mass     pseudopotential
        C              4.00    12.00000     C ( 1.00)

     No symmetry found



   Cartesian axes

     site n.     atom                  positions (alat units)
         1           C   tau(   1) = (   0.6797990   0.0435953   0.1182085  )
         2           C   tau(   2) = (   0.5981534   0.0941705   0.2856630  )
         3           C   tau(   3) = (   0.8628238   0.5774283   0.1183332  )
         4           C   tau(   4) = (   0.4332770   0.1979216   0.2859187  )
         5           C   tau(   5) = (   0.1886501   0.3553249   0.1185276  )
         6           C   tau(   6) = (   0.9441338   0.5261948   0.2857429  )
         7           C   tau(   7) = (   0.1081013   0.4076237   0.2859168  )
         8           C   tau(   8) = (   0.3523165   0.2496904   0.1185434  )

     number of k points=    16  Marzari-Vanderbilt smearing, width (Ry)=  0.0200
                       cart. coord. in units 2pi/alat
        k(    1) = (   0.0000000   0.0000000   0.0000000), wk =   0.0666667
        k(    2) = (  -0.0000056  -0.0002226   0.5973457), wk =   0.1333333
        k(    3) = (  -0.0000113  -0.0004452   1.1946914), wk =   0.1333333
        k(    4) = (  -0.0069534   0.5239129   0.0000573), wk =   0.1333333
        k(    5) = (  -0.0069590   0.5236903   0.5974030), wk =   0.1333333
        k(    6) = (  -0.0069647   0.5234676   1.1947487), wk =   0.1333333
        k(    7) = (  -0.0069421   0.5243581  -1.1946341), wk =   0.1333333
        k(    8) = (  -0.0069478   0.5241355  -0.5972884), wk =   0.1333333
        k(    9) = (  -0.5002261   0.0137202   0.0000767), wk =   0.0666667
        k(   10) = (  -0.5002318   0.0134976   0.5974224), wk =   0.1333333
        k(   11) = (  -0.5002374   0.0132750   1.1947681), wk =   0.1333333
        k(   12) = (  -0.5071795   0.5376331   0.0001340), wk =   0.1333333
        k(   13) = (  -0.5071852   0.5374105   0.5974797), wk =   0.1333333
        k(   14) = (  -0.5071908   0.5371878   1.1948254), wk =   0.1333333
        k(   15) = (  -0.5071682   0.5380783  -1.1945574), wk =   0.1333333
        k(   16) = (  -0.5071739   0.5378557  -0.5972117), wk =   0.1333333

     Dense  grid:    19557 G-vectors     FFT dimensions: (  60,  36,  20)

     Estimated max dynamical RAM per process >       1.56 MB

     Estimated total dynamical RAM >     149.76 MB

     Initial potential from superposition of free atoms

     starting charge   31.99968, renormalised to   32.00000
     Starting wfcs are   32 randomized atomic wfcs

     total cpu time spent up to now is        1.6 secs

     Self-consistent Calculation

     iteration #  1     ecut=    40.00 Ry     beta= 0.50
     Davidson diagonalization with overlap
     ethr =  1.00E-02,  avg # of iterations =  2.5

     total cpu time spent up to now is        2.5 secs

     total energy              =     -91.11699614 Ry
     Harris-Foulkes estimate   =     -91.49982461 Ry
     estimated scf accuracy    <       0.78178497 Ry

     iteration #  2     ecut=    40.00 Ry     beta= 0.50
     Davidson diagonalization with overlap
     ethr =  2.44E-03,  avg # of iterations =  2.3

     total cpu time spent up to now is        3.3 secs

     total energy              =     -91.14673367 Ry
     Harris-Foulkes estimate   =     -91.17929496 Ry
     estimated scf accuracy    <       0.07187370 Ry

     iteration #  3     ecut=    40.00 Ry     beta= 0.50
     Davidson diagonalization with overlap
     ethr =  2.25E-04,  avg # of iterations =  4.0

     total cpu time spent up to now is        4.4 secs

     total energy              =     -91.15812722 Ry
     Harris-Foulkes estimate   =     -91.15814761 Ry
     estimated scf accuracy    <       0.00207431 Ry

     iteration #  4     ecut=    40.00 Ry     beta= 0.50
     Davidson diagonalization with overlap
     ethr =  6.48E-06,  avg # of iterations =  3.7

     total cpu time spent up to now is        5.5 secs

     total energy              =     -91.15832006 Ry
     Harris-Foulkes estimate   =     -91.15839629 Ry
     estimated scf accuracy    <       0.00018234 Ry

     iteration #  5     ecut=    40.00 Ry     beta= 0.50
     Davidson diagonalization with overlap
     ethr =  5.70E-07,  avg # of iterations =  2.1

     total cpu time spent up to now is        6.2 secs

     total energy              =     -91.15835711 Ry
     Harris-Foulkes estimate   =     -91.15835992 Ry
     estimated scf accuracy    <       0.00001088 Ry

     iteration #  6     ecut=    40.00 Ry     beta= 0.50
     Davidson diagonalization with overlap
     ethr =  3.40E-08,  avg # of iterations =  2.0

     total cpu time spent up to now is        7.0 secs

     total energy              =     -91.15835826 Ry
     Harris-Foulkes estimate   =     -91.15835923 Ry
     estimated scf accuracy    <       0.00000225 Ry

     iteration #  7     ecut=    40.00 Ry     beta= 0.50
     Davidson diagonalization with overlap
     ethr =  7.03E-09,  avg # of iterations =  2.0

     total cpu time spent up to now is        7.8 secs

     total energy              =     -91.15835868 Ry
     Harris-Foulkes estimate   =     -91.15835867 Ry
     estimated scf accuracy    <       0.00000002 Ry

     iteration #  8     ecut=    40.00 Ry     beta= 0.50
     Davidson diagonalization with overlap
     ethr =  7.43E-11,  avg # of iterations =  3.0

     total cpu time spent up to now is        8.8 secs

     End of self-consistent calculation

          k = 0.0000 0.0000 0.0000 (  2433 PWs)   bands (ev):

   -14.3928 -12.8969 -12.8968  -9.1730  -7.9968  -2.2538  -2.2527  -2.0923
    -1.2873  -0.8100  -0.8088   0.0611   0.0611   2.0144   2.2061   2.5189
     6.6337   8.4169  11.9353  11.9473

          k =-0.0000-0.0002 0.5973 (  2444 PWs)   bands (ev):

   -13.6841 -12.2043 -12.2042  -8.5688  -7.4349  -3.7193  -2.9913  -2.9908
    -1.4813  -1.4807  -1.2630  -0.2408   0.0002   0.0015   0.7846   3.3868
     6.3973   9.3366  11.1414  11.1429

          k =-0.0000-0.0004 1.1947 (  2442 PWs)   bands (ev):

   -11.5979 -10.1847 -10.1846  -8.3872  -6.7709  -6.7532  -6.7528  -4.9688
    -3.8601  -2.2308  -1.3295  -1.3291   1.1016   2.1067   2.1078   4.3426
     5.9291   7.6625   7.6651   9.8748

          k =-0.0070 0.5239 0.0001 (  2454 PWs)   bands (ev):

   -14.2001 -13.6797 -11.8134 -10.4109  -6.5508  -4.4715  -2.2489  -2.0124
    -1.1237  -0.6547  -0.1249   0.8069   0.9160   1.5412   1.6862   1.9685
     7.9125  10.0236  10.2717  11.8078

          k =-0.0070 0.5237 0.5974 (  2444 PWs)   bands (ev):

   -13.4942 -12.9797 -11.1349  -9.7628  -6.1016  -4.3658  -3.5067  -2.8125
    -1.8749  -1.4086  -1.1713  -0.8237  -0.0361   0.7317   1.5745   2.7591
     7.5098   9.3595  10.9012  12.7489

          k =-0.0070 0.5235 1.1947 (  2445 PWs)   bands (ev):

   -11.4173 -10.9246  -9.2160  -8.4129  -7.4687  -7.4361  -5.7834  -4.6343
    -3.9781  -2.4831  -1.6019  -1.0273   0.9782   1.1791   3.1407   3.8639
     6.3328   6.8365   8.8498   9.6342

          k =-0.0069 0.5244-1.1946 (  2445 PWs)   bands (ev):

   -11.4172 -10.9247  -9.2160  -8.4129  -7.4691  -7.4358  -5.7837  -4.6340
    -3.9778  -2.4835  -1.6023  -1.0268   0.9774   1.1793   3.1406   3.8648
     6.3331   6.8370   8.8493   9.6337

          k =-0.0069 0.5241-0.5973 (  2443 PWs)   bands (ev):

   -13.4941 -12.9798 -11.1349  -9.7629  -6.1016  -4.3656  -3.5067  -2.8128
    -1.8754  -1.4091  -1.1712  -0.8232  -0.0355   0.7312   1.5746   2.7595
     7.5101   9.3596  10.9033  12.7485

          k =-0.5002 0.0137 0.0001 (  2456 PWs)   bands (ev):

   -14.0145 -14.0130 -11.1043 -11.1037  -5.5311  -5.5309  -1.8084  -1.7953
    -0.9292  -0.9289   0.7867   0.7891   0.9727   0.9781   1.3360   1.3365
     8.8878   8.8950   9.3791   9.4065

          k =-0.5002 0.0135 0.5974 (  2440 PWs)   bands (ev):

   -13.3093 -13.3079 -10.4412 -10.4406  -5.2132  -5.2129  -3.2394  -3.2389
    -1.3209  -1.3203  -0.9819  -0.9692   0.4576   0.4583   1.7652   1.7689
     8.4243   8.4250  10.2814  10.3084

          k =-0.5002 0.0133 1.1948 (  2444 PWs)   bands (ev):

   -11.2359 -11.2347  -8.6951  -8.6945  -7.6133  -7.6123  -5.1950  -5.1944
    -3.2190  -3.2186  -1.2326  -1.2321   1.3291   1.3398   3.3823   3.3861
     6.5710   6.5807   9.0504   9.0554

          k =-0.5072 0.5376 0.0001 (  2462 PWs)   bands (ev):

   -14.2975 -13.3689 -12.3679  -9.6735  -7.4959  -3.3483  -2.6624  -1.2396
    -1.1603  -0.9838  -0.3286  -0.3197   0.4843   1.9257   2.0323   2.6033
     7.4453   9.9849  11.0912  11.5074

          k =-0.5072 0.5374 0.5975 (  2449 PWs)   bands (ev):

   -13.5920 -12.6696 -11.6825  -9.0479  -6.9655  -3.6544  -3.6189  -2.4178
    -2.2167  -1.8099  -0.7126  -0.4201  -0.1772   0.4855   0.7950   3.4242
     6.9581  10.2469  10.8916  11.9210

          k =-0.5072 0.5372 1.1948 (  2443 PWs)   bands (ev):

   -11.5153 -10.6215  -9.7040  -8.3537  -7.1604  -7.0508  -6.2843  -4.6650
    -4.1216  -2.0273  -1.8185  -1.0493   0.6339   1.9683   2.4992   3.9879
     6.2631   7.3796   8.1282   9.9893

          k =-0.5072 0.5381-1.1946 (  2442 PWs)   bands (ev):

   -11.5153 -10.6214  -9.7041  -8.3538  -7.1607  -7.0505  -6.2840  -4.6653
    -4.1218  -2.0270  -1.8179  -1.0498   0.6334   1.9677   2.4999   3.9883
     6.2637   7.3798   8.1279   9.9887

          k =-0.5072 0.5379-0.5972 (  2450 PWs)   bands (ev):

   -13.5920 -12.6696 -11.6826  -9.0479  -6.9655  -3.6544  -3.6193  -2.4174
    -2.2163  -1.8102  -0.7132  -0.4204  -0.1775   0.4858   0.7954   3.4244
     6.9585  10.2470  10.8926  11.9208

     the Fermi energy is     4.5324 ev

!    total energy              =     -91.15835869 Ry
     Harris-Foulkes estimate   =     -91.15835869 Ry
     estimated scf accuracy    <          3.8E-09 Ry

     The total energy is the sum of the following terms:

     one-electron contribution =     -53.92575101 Ry
     hartree contribution      =      40.47977000 Ry
     xc contribution           =     -27.96078552 Ry
     ewald contribution        =     -49.75227405 Ry
     smearing contrib. (-TS)   =       0.00068189 Ry

     convergence has been achieved in   8 iterations

     Forces acting on atoms (cartesian axes, Ry/au):

     atom    1 type  1   force =     0.02033950   -0.01227354    0.00016879
     atom    2 type  1   force =    -0.01978866    0.01322034    0.00028587
     atom    3 type  1   force =    -0.02061602    0.01179246    0.00051653
     atom    4 type  1   force =     0.02035492   -0.01242321   -0.00049568
     atom    5 type  1   force =     0.02014893   -0.01257129   -0.00033099
     atom    6 type  1   force =     0.01951445   -0.01345088    0.00041213
     atom    7 type  1   force =    -0.01999863    0.01277505   -0.00019770
     atom    8 type  1   force =    -0.01995449    0.01293106   -0.00035894

     Total force =     0.067222     Total SCF correction =     0.000040


     Computing stress (Cartesian axis) and pressure

          total   stress  (Ry/bohr**3)                   (kbar)     P=       -0.62
  -0.00018126   0.00009380   0.00000011          -26.66       13.80        0.02
   0.00009380  -0.00008794  -0.00000003           13.80      -12.94       -0.00
   0.00000011  -0.00000003   0.00025653            0.02       -0.00       37.74


     BFGS Geometry Optimization

     number of scf cycles    =   1
     number of bfgs steps    =   0

     enthalpy new            =     -91.1583197793 Ry

     new trust radius        =       0.0306778057 bohr
     new conv_thr            =       0.0000000100 Ry

     new unit-cell volume =    572.16240 a.u.^3 (    84.78572 Ang^3 )
     density =      1.88017 g/cm^3

CELL_PARAMETERS (bohr)
  13.838813313   0.216693308   0.000240882
   0.262350041   8.829700136   0.003315347
   0.000708959  -0.000500680   4.684644019

ATOMIC_POSITIONS (crystal)
C             0.6803798817        0.0529419183        0.3530262027
C             0.5943458838        0.1371072998        0.8531363952
C             0.8458441615        0.8909521173        0.3528720640
C             0.4294872940        0.3006569660        0.8536234652
C             0.1804417612        0.5531115367        0.3535388594
C             0.9315088315        0.8058450576        0.8529135761
C             0.0954566582        0.6399462675        0.8534555446
C             0.3441445280        0.3866108368        0.3536908928



     Writing output data file ./pp.save/
     NEW-OLD atomic charge density approx. for the potential
     extrapolated charge   31.98845, renormalised to   32.00000

     total cpu time spent up to now is        8.8 secs

     Self-consistent Calculation

     iteration #  1     ecut=    40.00 Ry     beta= 0.50
     Davidson diagonalization with overlap
     ethr =  1.00E-06,  avg # of iterations =  6.0

     total cpu time spent up to now is       10.8 secs

     total energy              =     -91.15688111 Ry
     Harris-Foulkes estimate   =     -91.17381833 Ry
     estimated scf accuracy    <       0.00184178 Ry

     iteration #  2     ecut=    40.00 Ry     beta= 0.50
     Davidson diagonalization with overlap
     ethr =  5.76E-06,  avg # of iterations =  1.2

     total cpu time spent up to now is       11.4 secs

     total energy              =     -91.15686400 Ry
     Harris-Foulkes estimate   =     -91.15698875 Ry
     estimated scf accuracy    <       0.00023021 Ry

     iteration #  3     ecut=    40.00 Ry     beta= 0.50
     Davidson diagonalization with overlap
     ethr =  7.19E-07,  avg # of iterations =  2.0

     total cpu time spent up to now is       12.3 secs

     total energy              =     -91.15690690 Ry
     Harris-Foulkes estimate   =     -91.15690739 Ry
     estimated scf accuracy    <       0.00000369 Ry

     iteration #  4     ecut=    40.00 Ry     beta= 0.50
     Davidson diagonalization with overlap
     ethr =  1.15E-08,  avg # of iterations =  2.2

     total cpu time spent up to now is       13.1 secs

     total energy              =     -91.15690782 Ry
     Harris-Foulkes estimate   =     -91.15690771 Ry
     estimated scf accuracy    <       0.00000077 Ry

     iteration #  5     ecut=    40.00 Ry     beta= 0.50
     Davidson diagonalization with overlap
     ethr =  2.41E-09,  avg # of iterations =  1.1

     total cpu time spent up to now is       13.7 secs

     total energy              =     -91.15690784 Ry
     Harris-Foulkes estimate   =     -91.15690787 Ry
     estimated scf accuracy    <       0.00000007 Ry

     iteration #  6     ecut=    40.00 Ry     beta= 0.50
     Davidson diagonalization with overlap
     ethr =  2.18E-10,  avg # of iterations =  2.1

     total cpu time spent up to now is       14.5 secs

     End of self-consistent calculation

          k = 0.0000 0.0000 0.0000 (  2433 PWs)   bands (ev):

   -14.3871 -12.8778 -12.8777  -8.9361  -8.2351  -2.3619  -2.3612  -2.0865
    -1.2490  -0.7632  -0.7623   0.1936   0.1937   1.8567   2.3718   2.8061
     6.3527   8.4243  12.0266  12.0363

          k =-0.0000-0.0002 0.5935 (  2444 PWs)   bands (ev):

   -13.6858 -12.1924 -12.1923  -8.3283  -7.7125  -3.6587  -3.0954  -3.0949
    -1.3665  -1.3656  -1.2767   0.0218   0.0227   0.0733   0.4534   3.6600
     6.1037   9.3266  11.0806  11.0821

          k =-0.0000-0.0004 1.1871 (  2442 PWs)   bands (ev):

   -11.6254 -10.2092 -10.2091  -8.5108  -6.7234  -6.7231  -6.5184  -5.0910
    -3.5860  -2.4934  -1.3319  -1.3316   1.0214   2.0269   2.0281   4.1384
     6.1594   7.7435   7.7453  10.0319

          k =-0.0082 0.5251 0.0001 (  2454 PWs)   bands (ev):

   -14.1928 -13.6679 -11.7818 -10.3499  -6.6214  -4.5396  -2.2399  -1.9920
    -1.0754  -0.5759  -0.3127   0.9044   1.1285   1.2494   1.9935   2.1551
     7.7191  10.0377  10.1482  11.8524

          k =-0.0082 0.5249 0.5936 (  2444 PWs)   bands (ev):

   -13.4942 -12.9752 -11.1108  -9.7096  -6.2101  -4.4935  -3.4267  -2.6828
    -1.9008  -1.4197  -1.1718  -0.7369  -0.0046   0.6356   1.6370   2.9054
     7.3373   9.2643  10.8932  12.7033

          k =-0.0082 0.5246 1.1871 (  2445 PWs)   bands (ev):

   -11.4436 -10.9487  -9.2606  -8.5458  -7.3856  -7.3010  -5.7334  -4.5197
    -4.0058  -2.4820  -1.7035  -1.0586   0.9005   1.1054   3.0284   3.7102
     6.5127   6.9633   8.9441   9.7706

          k =-0.0082 0.5255-1.1870 (  2445 PWs)   bands (ev):

   -11.4435 -10.9488  -9.2604  -8.5462  -7.3860  -7.3005  -5.7332  -4.5199
    -4.0061  -2.4817  -1.7032  -1.0589   0.8998   1.1053   3.0290   3.7105
     6.5139   6.9627   8.9442   9.7697

          k =-0.0082 0.5253-0.5935 (  2443 PWs)   bands (ev):

   -13.4942 -12.9753 -11.1108  -9.7097  -6.2100  -4.4939  -3.4269  -2.6823
    -1.9003  -1.4201  -1.1718  -0.7374  -0.0052   0.6363   1.6373   2.9055
     7.3380   9.2638  10.8953  12.7033

          k =-0.5025 0.0149 0.0001 (  2456 PWs)   bands (ev):

   -14.0054 -14.0042 -11.0620 -11.0615  -5.5939  -5.5938  -1.7931  -1.7799
    -0.8686  -0.8684   0.5492   0.5502   1.0964   1.1002   1.5967   1.5973
     8.7688   8.7742   9.3962   9.4233

          k =-0.5025 0.0147 0.5936 (  2440 PWs)   bands (ev):

   -13.3075 -13.3064 -10.4065 -10.4060  -5.3263  -5.3259  -3.1358  -3.1354
    -1.2993  -1.2986  -0.9878  -0.9751   0.4353   0.4360   1.8547   1.8580
     8.3068   8.3079  10.2815  10.3082

          k =-0.5026 0.0145 1.1872 (  2444 PWs)   bands (ev):

   -11.2612 -11.2603  -8.7855  -8.7850  -7.5078  -7.5068  -5.1208  -5.1202
    -3.2270  -3.2267  -1.2912  -1.2908   1.2501   1.2608   3.2733   3.2772
     6.6893   6.6990   9.1654   9.1703

          k =-0.5108 0.5400 0.0001 (  2462 PWs)   bands (ev):

   -14.2911 -13.3541 -12.3435  -9.5639  -7.6084  -3.4325  -2.6579  -1.3038
    -1.1984  -0.9484  -0.2544  -0.2266   0.6539   1.6989   2.2689   2.8555
     7.1743  10.0123  11.0444  11.5209

          k =-0.5108 0.5398 0.5937 (  2449 PWs)   bands (ev):

   -13.5930 -12.6621 -11.6654  -8.9449  -7.1093  -3.7479  -3.5888  -2.4844
    -2.0803  -1.8245  -0.6358  -0.2289  -0.1662   0.5231   0.5886   3.6416
     6.7122  10.1774  10.9031  11.8958

          k =-0.5108 0.5396 1.1872 (  2443 PWs)   bands (ev):

   -11.5421 -10.6451  -9.7341  -8.4837  -7.1277  -6.8425  -6.2478  -4.7361
    -3.9313  -2.2058  -1.8160  -1.0635   0.5567   1.8872   2.4190   3.8027
     6.4869   7.4615   8.2234  10.1433

          k =-0.5107 0.5405-1.1869 (  2442 PWs)   bands (ev):

   -11.5421 -10.6451  -9.7342  -8.4837  -7.1274  -6.8429  -6.2480  -4.7359
    -3.9311  -2.2060  -1.8162  -1.0631   0.5562   1.8870   2.4191   3.8035
     6.4870   7.4627   8.2222  10.1429

          k =-0.5108 0.5402-0.5934 (  2450 PWs)   bands (ev):

   -13.5929 -12.6621 -11.6654  -8.9449  -7.1094  -3.7474  -3.5888  -2.4849
    -2.0809  -1.8248  -0.6352  -0.2284  -0.1664   0.5233   0.5881   3.6421
     6.7122  10.1780  10.9041  11.8950

     the Fermi energy is     4.2380 ev

!    total energy              =     -91.15690786 Ry
     Harris-Foulkes estimate   =     -91.15690786 Ry
     estimated scf accuracy    <          2.0E-09 Ry

     The total energy is the sum of the following terms:

     one-electron contribution =     -53.78189849 Ry
     hartree contribution      =      40.40924566 Ry
     xc contribution           =     -27.95981764 Ry
     ewald contribution        =     -49.82610002 Ry
     smearing contrib. (-TS)   =       0.00166264 Ry

     convergence has been achieved in   6 iterations

     Forces acting on atoms (cartesian axes, Ry/au):

     atom    1 type  1   force =    -0.03431652    0.02152515    0.00030948
     atom    2 type  1   force =     0.03473262   -0.02096286    0.00003584
     atom    3 type  1   force =     0.03391636   -0.02205936    0.00031700
     atom    4 type  1   force =    -0.03409948    0.02200846   -0.00020840
     atom    5 type  1   force =    -0.03387611    0.02217253   -0.00017955
     atom    6 type  1   force =    -0.03455157    0.02101663    0.00038005
     atom    7 type  1   force =     0.03396049   -0.02196622   -0.00021094
     atom    8 type  1   force =     0.03423421   -0.02173435   -0.00044348

     Total force =     0.114571     Total SCF correction =     0.000062


     Computing stress (Cartesian axis) and pressure

          total   stress  (Ry/bohr**3)                   (kbar)     P=       -0.40
   0.00020176  -0.00015466   0.00000022           29.68      -22.75        0.03
  -0.00015466   0.00006498  -0.00000012          -22.75        9.56       -0.02
   0.00000022  -0.00000012  -0.00027496            0.03       -0.02      -40.45


     number of scf cycles    =   2
     number of bfgs steps    =   1

     enthalpy old            =     -91.1583197793 Ry
     enthalpy new            =     -91.1568689671 Ry

     CASE: enthalpy_new > enthalpy_old

     new trust radius        =       0.0123835289 bohr
     new conv_thr            =       0.0000000100 Ry

     new unit-cell volume =    572.29033 a.u.^3 (    84.80468 Ang^3 )
     density =      1.87975 g/cm^3

CELL_PARAMETERS (bohr)
  13.875969435   0.197580961   0.000216611
   0.250684312   8.840920504   0.003306236
   0.000703640  -0.000500276   4.666926385

ATOMIC_POSITIONS (crystal)
C             0.6794965642        0.0537837973        0.3530041164
C             0.5952067809        0.1362023618        0.8531005401
C             0.8467387331        0.8901422756        0.3528067218
C             0.4286031381        0.3015089091        0.8536861185
C             0.1795662331        0.5539732335        0.3535805001
C             0.9306593833        0.8067652189        0.8528603971
C             0.0963260006        0.6390710324        0.8534813430
C             0.3450121667        0.3857251713        0.3537372631



     Writing output data file ./pp.save/
     NEW-OLD atomic charge density approx. for the potential
     extrapolated charge   32.00715, renormalised to   32.00000

     total cpu time spent up to now is       14.6 secs

     Self-consistent Calculation

     iteration #  1     ecut=    40.00 Ry     beta= 0.50
     Davidson diagonalization with overlap
     ethr =  1.00E-06,  avg # of iterations =  5.0

     total cpu time spent up to now is       16.5 secs

     total energy              =     -91.15964852 Ry
     Harris-Foulkes estimate   =     -91.15003646 Ry
     estimated scf accuracy    <       0.00066341 Ry

     iteration #  2     ecut=    40.00 Ry     beta= 0.50
     Davidson diagonalization with overlap
     ethr =  2.07E-06,  avg # of iterations =  1.6

     total cpu time spent up to now is       17.2 secs

     total energy              =     -91.15964831 Ry
     Harris-Foulkes estimate   =     -91.15969048 Ry
     estimated scf accuracy    <       0.00007960 Ry

     iteration #  3     ecut=    40.00 Ry     beta= 0.50
     Davidson diagonalization with overlap
     ethr =  2.49E-07,  avg # of iterations =  2.0

     total cpu time spent up to now is       18.1 secs

     total energy              =     -91.15966285 Ry
     Harris-Foulkes estimate   =     -91.15966295 Ry
     estimated scf accuracy    <       0.00000139 Ry

     iteration #  4     ecut=    40.00 Ry     beta= 0.50
     Davidson diagonalization with overlap
     ethr =  4.34E-09,  avg # of iterations =  2.3

     total cpu time spent up to now is       19.1 secs

     total energy              =     -91.15966316 Ry
     Harris-Foulkes estimate   =     -91.15966315 Ry
     estimated scf accuracy    <       0.00000031 Ry

     iteration #  5     ecut=    40.00 Ry     beta= 0.50
     Davidson diagonalization with overlap
     ethr =  9.72E-10,  avg # of iterations =  2.0

     total cpu time spent up to now is       19.9 secs

     total energy              =     -91.15966317 Ry
     Harris-Foulkes estimate   =     -91.15966322 Ry
     estimated scf accuracy    <       0.00000013 Ry

     iteration #  6     ecut=    40.00 Ry     beta= 0.50
     Davidson diagonalization with overlap
     ethr =  4.21E-10,  avg # of iterations =  2.0

     total cpu time spent up to now is       20.9 secs

     End of self-consistent calculation

          k = 0.0000 0.0000 0.0000 (  2433 PWs)   bands (ev):

   -14.3893 -12.8876 -12.8874  -9.0770  -8.0917  -2.2969  -2.2961  -2.0886
    -1.2691  -0.7894  -0.7883   0.1176   0.1176   2.0635   2.1596   2.6352
     6.5205   8.4199  11.9723  11.9834

          k =-0.0000-0.0002 0.5958 (  2444 PWs)   bands (ev):

   -13.6835 -12.1976 -12.1975  -8.4714  -7.5458  -3.6932  -3.0301  -3.0300
    -1.4362  -1.4358  -1.2672  -0.1130   0.0107   0.0118   0.6494   3.4974
     6.2787   9.3328  11.1158  11.1173

          k =-0.0000-0.0004 1.1916 (  2442 PWs)   bands (ev):

   -11.6072 -10.1915 -10.1914  -8.4329  -6.7399  -6.7398  -6.6682  -5.0208
    -3.7487  -2.3381  -1.3328  -1.3327   1.0704   2.0762   2.0773   4.2608
     6.0220   7.6944   7.6967   9.9376

          k =-0.0075 0.5244 0.0001 (  2454 PWs)   bands (ev):

   -14.1959 -13.6735 -11.7984 -10.3825  -6.5814  -4.4993  -2.2439  -2.0028
    -1.1013  -0.6200  -0.2002   0.8486   1.0045   1.4228   1.8121   2.0463
     7.8323  10.0298  10.2195  11.8264

          k =-0.0075 0.5242 0.5959 (  2444 PWs)   bands (ev):

   -13.4928 -12.9764 -11.1226  -9.7368  -6.1483  -4.4183  -3.4727  -2.7584
    -1.8777  -1.4118  -1.1701  -0.7751  -0.0297   0.6796   1.6023   2.8214
     7.4370   9.3184  10.8987  12.7304

          k =-0.0075 0.5239 1.1916 (  2445 PWs)   bands (ev):

   -11.4259 -10.9320  -9.2291  -8.4622  -7.4164  -7.3999  -5.7605  -4.5833
    -3.9926  -2.4850  -1.6483  -1.0433   0.9480   1.1507   3.0975   3.8040
     6.4040   6.8863   8.8875   9.6888

          k =-0.0075 0.5248-1.1915 (  2445 PWs)   bands (ev):

   -11.4259 -10.9321  -9.2290  -8.4624  -7.4163  -7.4000  -5.7606  -4.5831
    -3.9925  -2.4852  -1.6484  -1.0432   0.9472   1.1507   3.0977   3.8046
     6.4046   6.8863   8.8872   9.6881

          k =-0.0075 0.5246-0.5957 (  2443 PWs)   bands (ev):

   -13.4928 -12.9764 -11.1226  -9.7369  -6.1483  -4.4184  -3.4728  -2.7584
    -1.8778  -1.4122  -1.1701  -0.7750  -0.0296   0.6795   1.6025   2.8217
     7.4374   9.3183  10.9008  12.7302

          k =-0.5012 0.0142 0.0001 (  2456 PWs)   bands (ev):

   -14.0095 -14.0081 -11.0843 -11.0838  -5.5575  -5.5574  -1.8007  -1.7876
    -0.9018  -0.9016   0.6915   0.6928   1.0250   1.0294   1.4437   1.4440
     8.8382   8.8447   9.3864   9.4137

          k =-0.5012 0.0140 0.5959 (  2440 PWs)   bands (ev):

   -13.3071 -13.3058 -10.4238 -10.4233  -5.2605  -5.2603  -3.1958  -3.1955
    -1.3016  -1.3014  -0.9828  -0.9701   0.4393   0.4396   1.8040   1.8075
     8.3746   8.3752  10.2819  10.3087

          k =-0.5012 0.0138 1.1917 (  2444 PWs)   bands (ev):

   -11.2441 -11.2430  -8.7256  -8.7252  -7.5718  -7.5710  -5.1613  -5.1609
    -3.2248  -3.2247  -1.2604  -1.2602   1.2985   1.3092   3.3409   3.3446
     6.6169   6.6266   9.0963   9.1013

          k =-0.5086 0.5386 0.0001 (  2462 PWs)   bands (ev):

   -14.2937 -13.3614 -12.3561  -9.6237  -7.5452  -3.3822  -2.6593  -1.2204
    -1.2174  -0.9678  -0.2915  -0.2844   0.5557   1.8963   2.0655   2.7068
     7.3344   9.9964  11.0721  11.5138

          k =-0.5086 0.5384 0.5959 (  2449 PWs)   bands (ev):

   -13.5910 -12.6649 -11.6734  -8.9996  -7.0287  -3.6705  -3.6262  -2.4392
    -2.1609  -1.8146  -0.6854  -0.3283  -0.1711   0.5027   0.6967   3.5147
     6.8561  10.2174  10.8968  11.9090

          k =-0.5086 0.5382 1.1917 (  2443 PWs)   bands (ev):

   -11.5242 -10.6285  -9.7124  -8.4020  -7.1467  -6.9651  -6.2676  -4.6974
    -4.0398  -2.1049  -1.8198  -1.0578   0.6038   1.9371   2.4688   3.9142
     6.3529   7.4116   8.1659  10.0509

          k =-0.5086 0.5390-1.1915 (  2442 PWs)   bands (ev):

   -11.5242 -10.6284  -9.7125  -8.4021  -7.1468  -6.9652  -6.2675  -4.6975
    -4.0399  -2.1048  -1.8195  -1.0579   0.6033   1.9367   2.4692   3.9148
     6.3533   7.4122   8.1652  10.0504

          k =-0.5086 0.5388-0.5957 (  2450 PWs)   bands (ev):

   -13.5910 -12.6649 -11.6735  -8.9996  -7.0288  -3.6705  -3.6262  -2.4392
    -2.1609  -1.8149  -0.6855  -0.3283  -0.1713   0.5030   0.6968   3.5150
     6.8563  10.2176  10.8978  11.9085

     the Fermi energy is     4.4391 ev

!    total energy              =     -91.15966320 Ry
     Harris-Foulkes estimate   =     -91.15966320 Ry
     estimated scf accuracy    <          6.0E-10 Ry

     The total energy is the sum of the following terms:

     one-electron contribution =     -53.85498977 Ry
     hartree contribution      =      40.44552635 Ry
     xc contribution           =     -27.95921101 Ry
     ewald contribution        =     -49.79177084 Ry
     smearing contrib. (-TS)   =       0.00078208 Ry

     convergence has been achieved in   6 iterations

     Forces acting on atoms (cartesian axes, Ry/au):

     atom    1 type  1   force =    -0.00085393    0.00082753    0.00022805
     atom    2 type  1   force =     0.00133961   -0.00002820    0.00018283
     atom    3 type  1   force =     0.00051751   -0.00132958    0.00043454
     atom    4 type  1   force =    -0.00075119    0.00093518   -0.00037739
     atom    5 type  1   force =    -0.00078459    0.00089785   -0.00026769
     atom    6 type  1   force =    -0.00144112   -0.00008938    0.00040113
     atom    7 type  1   force =     0.00091860   -0.00070582   -0.00020544
     atom    8 type  1   force =     0.00105511   -0.00050759   -0.00039603

     Total force =     0.003708     Total SCF correction =     0.000016


     Computing stress (Cartesian axis) and pressure

          total   stress  (Ry/bohr**3)                   (kbar)     P=       -1.59
  -0.00004163   0.00000409   0.00000017           -6.12        0.60        0.02
   0.00000409  -0.00003192  -0.00000007            0.60       -4.69       -0.01
   0.00000017  -0.00000007   0.00004108            0.02       -0.01        6.04


     number of scf cycles    =   3
     number of bfgs steps    =   1

     enthalpy old            =     -91.1583197793 Ry
     enthalpy new            =     -91.1596242932 Ry

     CASE: enthalpy_new < enthalpy_old

     new trust radius        =       0.0051868800 bohr
     new conv_thr            =       0.0000000001 Ry

     new unit-cell volume =    571.80807 a.u.^3 (    84.73321 Ang^3 )
     density =      1.88134 g/cm^3

CELL_PARAMETERS (bohr)
  13.861032619   0.198997083   0.000276121
   0.251422104   8.833691443   0.003294737
   0.000722713  -0.000508179   4.671861379

ATOMIC_POSITIONS (crystal)
C             0.6794378031        0.0538750304        0.3530540492
C             0.5952995399        0.1362024773        0.8531407299
C             0.8467738589        0.8899937675        0.3529022324
C             0.4285516731        0.3016122757        0.8536031519
C             0.1795123534        0.5540723122        0.3535216482
C             0.9305593756        0.8067516823        0.8529484350
C             0.0963893235        0.6389938591        0.8534363243
C             0.3450850727        0.3856705955        0.3536504291



     Writing output data file ./pp.save/
     NEW-OLD atomic charge density approx. for the potential
     extrapolated charge   31.97301, renormalised to   32.00000

     total cpu time spent up to now is       20.9 secs

     Self-consistent Calculation

     iteration #  1     ecut=    40.00 Ry     beta= 0.50
     Davidson diagonalization with overlap
     ethr =  1.00E-06,  avg # of iterations =  2.0

     Threshold (ethr) on eigenvalues was too large:
     Diagonalizing with lowered threshold

     Davidson diagonalization with overlap
     ethr =  3.56E-08,  avg # of iterations =  2.6

     total cpu time spent up to now is       23.0 secs

     total energy              =     -91.15968390 Ry
     Harris-Foulkes estimate   =     -91.19709660 Ry
     estimated scf accuracy    <       0.00001151 Ry

     iteration #  2     ecut=    40.00 Ry     beta= 0.50
     Davidson diagonalization with overlap
     ethr =  3.60E-08,  avg # of iterations =  3.0

     total cpu time spent up to now is       24.3 secs

     total energy              =     -91.15970677 Ry
     Harris-Foulkes estimate   =     -91.15970929 Ry
     estimated scf accuracy    <       0.00000768 Ry

     iteration #  3     ecut=    40.00 Ry     beta= 0.50
     Davidson diagonalization with overlap
     ethr =  2.40E-08,  avg # of iterations =  1.0

     total cpu time spent up to now is       25.1 secs

     total energy              =     -91.15970533 Ry
     Harris-Foulkes estimate   =     -91.15970703 Ry
     estimated scf accuracy    <       0.00000269 Ry

     iteration #  4     ecut=    40.00 Ry     beta= 0.50
     Davidson diagonalization with overlap
     ethr =  8.40E-09,  avg # of iterations =  2.0

     total cpu time spent up to now is       26.2 secs

     total energy              =     -91.15970590 Ry
     Harris-Foulkes estimate   =     -91.15970593 Ry
     estimated scf accuracy    <       0.00000007 Ry

     iteration #  5     ecut=    40.00 Ry     beta= 0.50
     Davidson diagonalization with overlap
     ethr =  2.22E-10,  avg # of iterations =  2.0

     total cpu time spent up to now is       27.3 secs

     total energy              =     -91.15970590 Ry
     Harris-Foulkes estimate   =     -91.15970591 Ry
     estimated scf accuracy    <       0.00000002 Ry

     iteration #  6     ecut=    40.00 Ry     beta= 0.50
     Davidson diagonalization with overlap
     ethr =  5.11E-11,  avg # of iterations =  2.0

     total cpu time spent up to now is       28.4 secs

     total energy              =     -91.15970590 Ry
     Harris-Foulkes estimate   =     -91.15970590 Ry
     estimated scf accuracy    <          2.7E-09 Ry

     iteration #  7     ecut=    40.00 Ry     beta= 0.50
     Davidson diagonalization with overlap
     ethr =  8.37E-12,  avg # of iterations =  2.0

     total cpu time spent up to now is       29.6 secs

     total energy              =     -91.15970590 Ry
     Harris-Foulkes estimate   =     -91.15970590 Ry
     estimated scf accuracy    <          8.6E-10 Ry

     iteration #  8     ecut=    40.00 Ry     beta= 0.50
     Davidson diagonalization with overlap
     ethr =  2.68E-12,  avg # of iterations =  2.0

     total cpu time spent up to now is       30.9 secs

     End of self-consistent calculation

          k = 0.0000 0.0000 0.0000 (  2433 PWs)   bands (ev):

   -14.3822 -12.8766 -12.8765  -9.0508  -8.0789  -2.2679  -2.2670  -2.0793
    -1.2922  -0.7787  -0.7779   0.0982   0.0982   2.0930   2.1461   2.6532
     6.5391   8.4304  11.9942  12.0030

          k =-0.0000-0.0002 0.5952 (  2444 PWs)   bands (ev):

   -13.6780 -12.1883 -12.1882  -8.4470  -7.5359  -3.7069  -3.0302  -3.0301
    -1.4206  -1.4201  -1.2596  -0.1165   0.0196   0.0205   0.6690   3.5137
     6.2903   9.3409  11.1222  11.1236

          k =-0.0000-0.0004 1.1903 (  2442 PWs)   bands (ev):

   -11.6067 -10.1876 -10.1875  -8.4399  -6.7409  -6.7408  -6.6495  -5.0092
    -3.7394  -2.3261  -1.3089  -1.3089   1.0738   2.0801   2.0810   4.2620
     6.0337   7.6953   7.6972   9.9432

          k =-0.0075 0.5248 0.0001 (  2454 PWs)   bands (ev):

   -14.1882 -13.6644 -11.7849 -10.3649  -6.5600  -4.4735  -2.2360  -1.9953
    -1.1240  -0.6414  -0.1695   0.8636   0.9875   1.4531   1.7975   2.0634
     7.8523  10.0440  10.2398  11.8430

          k =-0.0075 0.5246 0.5952 (  2444 PWs)   bands (ev):

   -13.4868 -12.9689 -11.1107  -9.7210  -6.1314  -4.4057  -3.4844  -2.7602
    -1.8816  -1.4055  -1.1643  -0.7777  -0.0078   0.6994   1.6153   2.8364
     7.4487   9.3272  10.9105  12.7356

          k =-0.0076 0.5244 1.1904 (  2445 PWs)   bands (ev):

   -11.4248 -10.9297  -9.2240  -8.4654  -7.4176  -7.3901  -5.7590  -4.5776
    -3.9752  -2.4632  -1.6321  -1.0217   0.9501   1.1522   3.1020   3.8064
     6.4123   6.8891   8.8912   9.6942

          k =-0.0075 0.5253-1.1903 (  2445 PWs)   bands (ev):

   -11.4248 -10.9296  -9.2241  -8.4655  -7.4176  -7.3902  -5.7590  -4.5776
    -3.9752  -2.4631  -1.6321  -1.0218   0.9493   1.1523   3.1021   3.8072
     6.4130   6.8890   8.8910   9.6935

          k =-0.0075 0.5250-0.5951 (  2443 PWs)   bands (ev):

   -13.4867 -12.9689 -11.1107  -9.7210  -6.1315  -4.4057  -3.4845  -2.7602
    -1.8815  -1.4059  -1.1642  -0.7778  -0.0078   0.6994   1.6153   2.8367
     7.4491   9.3271  10.9126  12.7354

          k =-0.5017 0.0143 0.0001 (  2456 PWs)   bands (ev):

   -14.0014 -14.0001 -11.0687 -11.0682  -5.5337  -5.5336  -1.7913  -1.7784
    -0.9239  -0.9239   0.7223   0.7234   1.0390   1.0432   1.4281   1.4283
     8.8598   8.8661   9.3997   9.4265

          k =-0.5017 0.0141 0.5952 (  2440 PWs)   bands (ev):

   -13.3007 -13.2994 -10.4099 -10.4094  -5.2443  -5.2441  -3.2040  -3.2037
    -1.3048  -1.3046  -0.9751  -0.9626   0.4607   0.4609   1.8160   1.8195
     8.3870   8.3875  10.2929  10.3192

          k =-0.5017 0.0138 1.1904 (  2444 PWs)   bands (ev):

   -11.2426 -11.2415  -8.7229  -8.7225  -7.5696  -7.5688  -5.1577  -5.1573
    -3.2049  -3.2048  -1.2413  -1.2412   1.3019   1.3124   3.3451   3.3488
     6.6216   6.6312   9.0990   9.1041

          k =-0.5092 0.5391 0.0001 (  2462 PWs)   bands (ev):

   -14.2861 -13.3518 -12.3439  -9.6028  -7.5274  -3.3544  -2.6531  -1.2432
    -1.1875  -0.9564  -0.3050  -0.2799   0.5375   1.9260   2.0517   2.7254
     7.3537  10.0103  11.0938  11.5314

          k =-0.5092 0.5389 0.5953 (  2449 PWs)   bands (ev):

   -13.5851 -12.6569 -11.6628  -8.9805  -7.0141  -3.6651  -3.6394  -2.4421
    -2.1529  -1.8100  -0.6653  -0.3310  -0.1615   0.5124   0.7156   3.5313
     6.8667  10.2275  10.9083  11.9144

          k =-0.5093 0.5387 1.1905 (  2443 PWs)   bands (ev):

   -11.5233 -10.6255  -9.7076  -8.4081  -7.1486  -6.9495  -6.2674  -4.6835
    -4.0321  -2.0915  -1.7963  -1.0346   0.6043   1.9419   2.4732   3.9134
     6.3646   7.4140   8.1673  10.0575

          k =-0.5092 0.5395-1.1902 (  2442 PWs)   bands (ev):

   -11.5232 -10.6255  -9.7076  -8.4082  -7.1486  -6.9496  -6.2673  -4.6835
    -4.0320  -2.0915  -1.7962  -1.0346   0.6038   1.9414   2.4737   3.9140
     6.3650   7.4147   8.1665  10.0570

          k =-0.5092 0.5393-0.5950 (  2450 PWs)   bands (ev):

   -13.5851 -12.6569 -11.6629  -8.9806  -7.0141  -3.6651  -3.6395  -2.4421
    -2.1530  -1.8102  -0.6652  -0.3310  -0.1618   0.5128   0.7156   3.5315
     6.8670  10.2278  10.9093  11.9139

     the Fermi energy is     4.4409 ev

!    total energy              =     -91.15970590 Ry
     Harris-Foulkes estimate   =     -91.15970590 Ry
     estimated scf accuracy    <          1.4E-11 Ry

     The total energy is the sum of the following terms:

     one-electron contribution =     -53.70470907 Ry
     hartree contribution      =      40.37965611 Ry
     xc contribution           =     -27.95970093 Ry
     ewald contribution        =     -49.87573085 Ry
     smearing contrib. (-TS)   =       0.00077885 Ry

     convergence has been achieved in   8 iterations

     Forces acting on atoms (cartesian axes, Ry/au):

     atom    1 type  1   force =     0.00027652    0.00008801    0.00022381
     atom    2 type  1   force =     0.00016324    0.00058870    0.00010462
     atom    3 type  1   force =    -0.00056580   -0.00053374    0.00035939
     atom    4 type  1   force =     0.00036531    0.00023304   -0.00027275
     atom    5 type  1   force =     0.00027323    0.00008492   -0.00023936
     atom    6 type  1   force =    -0.00026979   -0.00077132    0.00029590
     atom    7 type  1   force =    -0.00021888    0.00002163   -0.00012877
     atom    8 type  1   force =    -0.00002383    0.00028876   -0.00034284

     Total force =     0.001636     Total SCF correction =     0.000001


     Computing stress (Cartesian axis) and pressure

          total   stress  (Ry/bohr**3)                   (kbar)     P=       -1.44
  -0.00000530  -0.00001905  -0.00000001           -0.78       -2.80       -0.00
  -0.00001905  -0.00001734   0.00000003           -2.80       -2.55        0.00
  -0.00000001   0.00000003  -0.00000664           -0.00        0.00       -0.98


     number of scf cycles    =   4
     number of bfgs steps    =   2

     enthalpy old            =     -91.1596242932 Ry
     enthalpy new            =     -91.1596670307 Ry

     CASE: enthalpy_new < enthalpy_old

     new trust radius        =       0.0040424386 bohr
     new conv_thr            =            1.0E-10 Ry

     new unit-cell volume =    571.22374 a.u.^3 (    84.64662 Ang^3 )
     density =      1.88326 g/cm^3

CELL_PARAMETERS (bohr)
  13.854868646   0.192146663   0.000287411
   0.247039614   8.827449941   0.003298017
   0.000726389  -0.000506738   4.672369146

ATOMIC_POSITIONS (crystal)
C             0.6794453449        0.0539078804        0.3531196590
C             0.5953338839        0.1362761579        0.8531758855
C             0.8467384250        0.8898915487        0.3530117853
C             0.4285677687        0.3016659280        0.8535172106
C             0.1795209333        0.5541068276        0.3534499762
C             0.9305151659        0.8066522311        0.8530411625
C             0.0963872792        0.6389781419        0.8533942101
C             0.3451001992        0.3856932844        0.3535471109



     Writing output data file ./pp.save/
     NEW-OLD atomic charge density approx. for the potential
     extrapolated charge   31.96727, renormalised to   32.00000

     total cpu time spent up to now is       31.0 secs

     Self-consistent Calculation

     iteration #  1     ecut=    40.00 Ry     beta= 0.50
     Davidson diagonalization with overlap
     ethr =  1.00E-06,  avg # of iterations =  2.0

     Threshold (ethr) on eigenvalues was too large:
     Diagonalizing with lowered threshold

     Davidson diagonalization with overlap
     ethr =  4.50E-08,  avg # of iterations =  1.2

     total cpu time spent up to now is       33.2 secs

     total energy              =     -91.15969542 Ry
     Harris-Foulkes estimate   =     -91.20488736 Ry
     estimated scf accuracy    <       0.00001466 Ry

     iteration #  2     ecut=    40.00 Ry     beta= 0.50
     Davidson diagonalization with overlap
     ethr =  4.58E-08,  avg # of iterations =  3.0

     total cpu time spent up to now is       35.0 secs

     total energy              =     -91.15972839 Ry
     Harris-Foulkes estimate   =     -91.15973202 Ry
     estimated scf accuracy    <       0.00001119 Ry

     iteration #  3     ecut=    40.00 Ry     beta= 0.50
     Davidson diagonalization with overlap
     ethr =  3.50E-08,  avg # of iterations =  1.0

     total cpu time spent up to now is       36.0 secs

     total energy              =     -91.15972602 Ry
     Harris-Foulkes estimate   =     -91.15972873 Ry
     estimated scf accuracy    <       0.00000410 Ry

     iteration #  4     ecut=    40.00 Ry     beta= 0.50
     Davidson diagonalization with overlap
     ethr =  1.28E-08,  avg # of iterations =  2.0

     total cpu time spent up to now is       37.4 secs

     total energy              =     -91.15972692 Ry
     Harris-Foulkes estimate   =     -91.15972698 Ry
     estimated scf accuracy    <       0.00000014 Ry

     iteration #  5     ecut=    40.00 Ry     beta= 0.50
     Davidson diagonalization with overlap
     ethr =  4.47E-10,  avg # of iterations =  2.0

     total cpu time spent up to now is       38.8 secs

     total energy              =     -91.15972692 Ry
     Harris-Foulkes estimate   =     -91.15972693 Ry
     estimated scf accuracy    <       0.00000003 Ry

     iteration #  6     ecut=    40.00 Ry     beta= 0.50
     Davidson diagonalization with overlap
     ethr =  9.64E-11,  avg # of iterations =  1.6

     total cpu time spent up to now is       40.2 secs

     total energy              =     -91.15972692 Ry
     Harris-Foulkes estimate   =     -91.15972692 Ry
     estimated scf accuracy    <          7.3E-09 Ry

     iteration #  7     ecut=    40.00 Ry     beta= 0.50
     Davidson diagonalization with overlap
     ethr =  2.27E-11,  avg # of iterations =  2.0

     total cpu time spent up to now is       41.8 secs

     total energy              =     -91.15972692 Ry
     Harris-Foulkes estimate   =     -91.15972692 Ry
     estimated scf accuracy    <          1.7E-09 Ry

     iteration #  8     ecut=    40.00 Ry     beta= 0.50
     Davidson diagonalization with overlap
     ethr =  5.34E-12,  avg # of iterations =  2.0

     total cpu time spent up to now is       43.4 secs

     End of self-consistent calculation

          k = 0.0000 0.0000 0.0000 (  2433 PWs)   bands (ev):

   -14.3725 -12.8663 -12.8662  -9.0391  -8.0686  -2.2566  -2.2558  -2.0670
    -1.2849  -0.7691  -0.7685   0.1059   0.1059   2.1039   2.1545   2.6626
     6.5477   8.4439  12.0137  12.0199

          k =-0.0000-0.0002 0.5951 (  2444 PWs)   bands (ev):

   -13.6685 -12.1781 -12.1781  -8.4355  -7.5260  -3.6988  -3.0212  -3.0212
    -1.4100  -1.4096  -1.2475  -0.1074   0.0290   0.0297   0.6792   3.5229
     6.2990   9.3540  11.1315  11.1326

          k =-0.0000-0.0004 1.1902 (  2442 PWs)   bands (ev):

   -11.5975 -10.1780 -10.1778  -8.4315  -6.7317  -6.7316  -6.6385  -4.9989
    -3.7292  -2.3162  -1.2980  -1.2979   1.0851   2.0890   2.0898   4.2719
     6.0425   7.7040   7.7055   9.9515

          k =-0.0073 0.5252 0.0001 (  2454 PWs)   bands (ev):

   -14.1782 -13.6540 -11.7747 -10.3542  -6.5491  -4.4625  -2.2259  -1.9874
    -1.1166  -0.6338  -0.1582   0.8760   0.9954   1.4641   1.8057   2.0746
     7.8618  10.0618  10.2507  11.8564

          k =-0.0073 0.5250 0.5952 (  2444 PWs)   bands (ev):

   -13.4769 -12.9587 -11.1006  -9.7105  -6.1210  -4.3958  -3.4760  -2.7509
    -1.8729  -1.3956  -1.1566  -0.7688   0.0031   0.7099   1.6273   2.8473
     7.4577   9.3364  10.9277  12.7456

          k =-0.0073 0.5247 1.1903 (  2445 PWs)   bands (ev):

   -11.4155 -10.9199  -9.2146  -8.4567  -7.4082  -7.3800  -5.7498  -4.5680
    -3.9645  -2.4523  -1.6218  -1.0109   0.9594   1.1598   3.1119   3.8157
     6.4221   6.8980   8.9015   9.7037

          k =-0.0073 0.5256-1.1901 (  2445 PWs)   bands (ev):

   -11.4154 -10.9199  -9.2147  -8.4567  -7.4082  -7.3800  -5.7498  -4.5680
    -3.9646  -2.4523  -1.6217  -1.0110   0.9587   1.1599   3.1119   3.8165
     6.4227   6.8980   8.9013   9.7030

          k =-0.0073 0.5254-0.5950 (  2443 PWs)   bands (ev):

   -13.4769 -12.9587 -11.1007  -9.7105  -6.1210  -4.3958  -3.4761  -2.7509
    -1.8729  -1.3960  -1.1565  -0.7689   0.0030   0.7099   1.6274   2.8477
     7.4581   9.3363  10.9298  12.7455

          k =-0.5019 0.0140 0.0001 (  2456 PWs)   bands (ev):

   -13.9915 -13.9903 -11.0578 -11.0574  -5.5227  -5.5226  -1.7798  -1.7671
    -0.9165  -0.9164   0.7336   0.7344   1.0478   1.0518   1.4361   1.4364
     8.8699   8.8762   9.4156   9.4417

          k =-0.5019 0.0138 0.5952 (  2440 PWs)   bands (ev):

   -13.2909 -13.2897 -10.3992 -10.3988  -5.2340  -5.2338  -3.1953  -3.1951
    -1.2959  -1.2957  -0.9638  -0.9516   0.4714   0.4715   1.8245   1.8280
     8.3967   8.3973  10.3082  10.3338

          k =-0.5019 0.0136 1.1903 (  2444 PWs)   bands (ev):

   -11.2332 -11.2323  -8.7135  -8.7131  -7.5600  -7.5592  -5.1480  -5.1476
    -3.1941  -3.1940  -1.2308  -1.2306   1.3124   1.3227   3.3538   3.3574
     6.6310   6.6404   9.1071   9.1121

          k =-0.5092 0.5392 0.0001 (  2462 PWs)   bands (ev):

   -14.2759 -13.3419 -12.3334  -9.5919  -7.5170  -3.3431  -2.6448  -1.2357
    -1.1762  -0.9444  -0.2974  -0.2707   0.5454   1.9370   2.0599   2.7369
     7.3651  10.0242  11.1033  11.5543

          k =-0.5092 0.5390 0.5952 (  2449 PWs)   bands (ev):

   -13.5750 -12.6471 -11.6525  -8.9698  -7.0041  -3.6557  -3.6311  -2.4333
    -2.1430  -1.8019  -0.6545  -0.3220  -0.1497   0.5215   0.7258   3.5425
     6.8768  10.2368  10.9218  11.9230

          k =-0.5092 0.5388 1.1903 (  2443 PWs)   bands (ev):

   -11.5137 -10.6162  -9.6979  -8.3994  -7.1395  -6.9389  -6.2580  -4.6733
    -4.0222  -2.0815  -1.7853  -1.0237   0.6121   1.9527   2.4820   3.9214
     6.3753   7.4240   8.1759  10.0675

          k =-0.5092 0.5397-1.1901 (  2442 PWs)   bands (ev):

   -11.5137 -10.6162  -9.6979  -8.3995  -7.1396  -6.9390  -6.2580  -4.6733
    -4.0221  -2.0815  -1.7852  -1.0236   0.6116   1.9522   2.4826   3.9219
     6.3757   7.4246   8.1751  10.0670

          k =-0.5092 0.5394-0.5950 (  2450 PWs)   bands (ev):

   -13.5750 -12.6471 -11.6525  -8.9698  -7.0040  -3.6557  -3.6312  -2.4333
    -2.1430  -1.8022  -0.6544  -0.3220  -0.1500   0.5218   0.7258   3.5427
     6.8771  10.2371  10.9227  11.9225

     the Fermi energy is     4.4521 ev

!    total energy              =     -91.15972692 Ry
     Harris-Foulkes estimate   =     -91.15972692 Ry
     estimated scf accuracy    <          3.4E-12 Ry

     The total energy is the sum of the following terms:

     one-electron contribution =     -53.49742151 Ry
     hartree contribution      =      40.28741038 Ry
     xc contribution           =     -27.95949042 Ry
     ewald contribution        =     -49.99099321 Ry
     smearing contrib. (-TS)   =       0.00076783 Ry

     convergence has been achieved in   8 iterations

     Forces acting on atoms (cartesian axes, Ry/au):

     atom    1 type  1   force =     0.00028616    0.00003103    0.00013510
     atom    2 type  1   force =     0.00006258    0.00053584    0.00010978
     atom    3 type  1   force =    -0.00053598   -0.00044054    0.00024240
     atom    4 type  1   force =     0.00042168    0.00022820   -0.00022107
     atom    5 type  1   force =     0.00026144   -0.00001664   -0.00014542
     atom    6 type  1   force =    -0.00020621   -0.00074018    0.00022942
     atom    7 type  1   force =    -0.00025894    0.00000820   -0.00011776
     atom    8 type  1   force =    -0.00003073    0.00039407   -0.00023245

     Total force =     0.001499     Total SCF correction =     0.000001


     Computing stress (Cartesian axis) and pressure

          total   stress  (Ry/bohr**3)                   (kbar)     P=       -1.56
  -0.00000314  -0.00002031  -0.00000005           -0.46       -2.99       -0.01
  -0.00002031  -0.00001629   0.00000003           -2.99       -2.40        0.00
  -0.00000005   0.00000003  -0.00001238           -0.01        0.00       -1.82


     number of scf cycles    =   5
     number of bfgs steps    =   3

     enthalpy old            =     -91.1596670307 Ry
     enthalpy new            =     -91.1596880894 Ry

     CASE: enthalpy_new < enthalpy_old


     WARNING: bfgs curvature condition failed, Theta= 0.843
     new trust radius        =       0.0044491419 bohr
     new conv_thr            =            1.0E-10 Ry

     new unit-cell volume =    570.56085 a.u.^3 (    84.54839 Ang^3 )
     density =      1.88545 g/cm^3

CELL_PARAMETERS (bohr)
  13.848377823   0.184424802   0.000293549
   0.242104368   8.820666398   0.003301719
   0.000728364  -0.000504946   4.672619580

ATOMIC_POSITIONS (crystal)
C             0.6794547753        0.0539399864        0.3531817799
C             0.5953672539        0.1363549759        0.8532153276
C             0.8466997235        0.8897851269        0.3531191795
C             0.4285883561        0.3017240134        0.8534282958
C             0.1795307449        0.5541381177        0.3533817393
C             0.9304695247        0.8065437676        0.8531358397
C             0.0963828313        0.6389607406        0.8533489766
C             0.3451157903        0.3857252714        0.3534458616



     Writing output data file ./pp.save/
     NEW-OLD atomic charge density approx. for the potential
     extrapolated charge   31.96282, renormalised to   32.00000

     total cpu time spent up to now is       43.5 secs

     Self-consistent Calculation

     iteration #  1     ecut=    40.00 Ry     beta= 0.50
     Davidson diagonalization with overlap
     ethr =  1.00E-06,  avg # of iterations =  2.1

     Threshold (ethr) on eigenvalues was too large:
     Diagonalizing with lowered threshold

     Davidson diagonalization with overlap
     ethr =  5.85E-08,  avg # of iterations =  1.3

     total cpu time spent up to now is       46.5 secs

     total energy              =     -91.15970897 Ry
     Harris-Foulkes estimate   =     -91.21080791 Ry
     estimated scf accuracy    <       0.00001907 Ry

     iteration #  2     ecut=    40.00 Ry     beta= 0.50
     Davidson diagonalization with overlap
     ethr =  5.96E-08,  avg # of iterations =  3.0

     total cpu time spent up to now is       48.7 secs

     total energy              =     -91.15975153 Ry
     Harris-Foulkes estimate   =     -91.15975620 Ry
     estimated scf accuracy    <       0.00001429 Ry

     iteration #  3     ecut=    40.00 Ry     beta= 0.50
     Davidson diagonalization with overlap
     ethr =  4.47E-08,  avg # of iterations =  1.0

     total cpu time spent up to now is       49.9 secs

     total energy              =     -91.15974852 Ry
     Harris-Foulkes estimate   =     -91.15975197 Ry
     estimated scf accuracy    <       0.00000521 Ry

     iteration #  4     ecut=    40.00 Ry     beta= 0.50
     Davidson diagonalization with overlap
     ethr =  1.63E-08,  avg # of iterations =  2.0

     total cpu time spent up to now is       51.8 secs

     total energy              =     -91.15974967 Ry
     Harris-Foulkes estimate   =     -91.15974975 Ry
     estimated scf accuracy    <       0.00000019 Ry

     iteration #  5     ecut=    40.00 Ry     beta= 0.50
     Davidson diagonalization with overlap
     ethr =  5.91E-10,  avg # of iterations =  2.0

     total cpu time spent up to now is       53.6 secs

     total energy              =     -91.15974967 Ry
     Harris-Foulkes estimate   =     -91.15974969 Ry
     estimated scf accuracy    <       0.00000004 Ry

     iteration #  6     ecut=    40.00 Ry     beta= 0.50
     Davidson diagonalization with overlap
     ethr =  1.30E-10,  avg # of iterations =  1.1

     total cpu time spent up to now is       55.1 secs

     total energy              =     -91.15974967 Ry
     Harris-Foulkes estimate   =     -91.15974967 Ry
     estimated scf accuracy    <       0.00000001 Ry

     iteration #  7     ecut=    40.00 Ry     beta= 0.50
     Davidson diagonalization with overlap
     ethr =  3.32E-11,  avg # of iterations =  2.0

     total cpu time spent up to now is       57.2 secs

     total energy              =     -91.15974967 Ry
     Harris-Foulkes estimate   =     -91.15974967 Ry
     estimated scf accuracy    <          2.1E-09 Ry

     iteration #  8     ecut=    40.00 Ry     beta= 0.50
     Davidson diagonalization with overlap
     ethr =  6.55E-12,  avg # of iterations =  2.0

     total cpu time spent up to now is       59.3 secs

     End of self-consistent calculation

          k = 0.0000 0.0000 0.0000 (  2433 PWs)   bands (ev):

   -14.3619 -12.8551 -12.8550  -9.0270  -8.0574  -2.2448  -2.2440  -2.0533
    -1.2754  -0.7585  -0.7582   0.1157   0.1158   2.1156   2.1647   2.6725
     6.5572   8.4590  12.0350  12.0387

          k =-0.0000-0.0002 0.5951 (  2444 PWs)   bands (ev):

   -13.6579 -12.1670 -12.1669  -8.4234  -7.5150  -3.6889  -3.0107  -3.0106
    -1.3986  -1.3983  -1.2340  -0.0967   0.0394   0.0399   0.6905   3.5329
     6.3090   9.3688  11.1424  11.1433

          k =-0.0000-0.0004 1.1901 (  2442 PWs)   bands (ev):

   -11.5872 -10.1671 -10.1670  -8.4215  -6.7210  -6.7209  -6.6267  -4.9878
    -3.7178  -2.3052  -1.2863  -1.2863   1.0980   2.0991   2.0998   4.2836
     6.0523   7.7143   7.7155   9.9613

          k =-0.0070 0.5256 0.0001 (  2454 PWs)   bands (ev):

   -14.1672 -13.6426 -11.7637 -10.3429  -6.5375  -4.4509  -2.2148  -1.9788
    -1.1070  -0.6240  -0.1463   0.8895   1.0054   1.4759   1.8158   2.0867
     7.8723  10.0816  10.2630  11.8711

          k =-0.0070 0.5254 0.5951 (  2444 PWs)   bands (ev):

   -13.4660 -12.9474 -11.0897  -9.6992  -6.1096  -4.3847  -3.4659  -2.7402
    -1.8626  -1.3846  -1.1480  -0.7583   0.0147   0.7213   1.6405   2.8593
     7.4681   9.3472  10.9469  12.7577

          k =-0.0070 0.5251 1.1902 (  2445 PWs)   bands (ev):

   -11.4048 -10.9089  -9.2040  -8.4463  -7.3974  -7.3688  -5.7392  -4.5571
    -3.9531  -2.4408  -1.6105  -0.9994   0.9702   1.1685   3.1232   3.8266
     6.4331   6.9085   8.9136   9.7149

          k =-0.0070 0.5260-1.1901 (  2445 PWs)   bands (ev):

   -11.4048 -10.9089  -9.2040  -8.4464  -7.3974  -7.3689  -5.7392  -4.5571
    -3.9531  -2.4407  -1.6104  -0.9995   0.9694   1.1686   3.1232   3.8274
     6.4338   6.9085   8.9134   9.7142

          k =-0.0070 0.5258-0.5950 (  2443 PWs)   bands (ev):

   -13.4660 -12.9474 -11.0897  -9.6992  -6.1097  -4.3847  -3.4659  -2.7402
    -1.8625  -1.3850  -1.1479  -0.7583   0.0147   0.7214   1.6406   2.8596
     7.4685   9.3471  10.9490  12.7576

          k =-0.5021 0.0138 0.0001 (  2456 PWs)   bands (ev):

   -13.9806 -13.9795 -11.0462 -11.0458  -5.5110  -5.5109  -1.7671  -1.7548
    -0.9069  -0.9068   0.7455   0.7461   1.0572   1.0610   1.4462   1.4466
     8.8811   8.8872   9.4332   9.4586

          k =-0.5022 0.0136 0.5951 (  2440 PWs)   bands (ev):

   -13.2801 -13.2790 -10.3877 -10.3873  -5.2227  -5.2226  -3.1850  -3.1849
    -1.2854  -1.2852  -0.9513  -0.9393   0.4829   0.4831   1.8339   1.8373
     8.4078   8.4084  10.3254  10.3503

          k =-0.5022 0.0133 1.1902 (  2444 PWs)   bands (ev):

   -11.2227 -11.2218  -8.7027  -8.7023  -7.5492  -7.5485  -5.1370  -5.1366
    -3.1826  -3.1825  -1.2193  -1.2192   1.3244   1.3344   3.3638   3.3673
     6.6420   6.6512   9.1167   9.1216

          k =-0.5091 0.5394 0.0001 (  2462 PWs)   bands (ev):

   -14.2646 -13.3311 -12.3220  -9.5804  -7.5059  -3.3312  -2.6358  -1.2261
    -1.1643  -0.9312  -0.2877  -0.2607   0.5553   1.9487   2.0701   2.7492
     7.3778  10.0397  11.1139  11.5798

          k =-0.5092 0.5391 0.5952 (  2449 PWs)   bands (ev):

   -13.5639 -12.6364 -11.6413  -8.9583  -6.9930  -3.6449  -3.6209  -2.4228
    -2.1319  -1.7929  -0.6429  -0.3114  -0.1367   0.5315   0.7371   3.5546
     6.8884  10.2477  10.9368  11.9334

          k =-0.5092 0.5389 1.1903 (  2443 PWs)   bands (ev):

   -11.5028 -10.6057  -9.6870  -8.3890  -7.1291  -6.9275  -6.2473  -4.6622
    -4.0111  -2.0705  -1.7735  -1.0120   0.6210   1.9649   2.4921   3.9309
     6.3873   7.4355   8.1860  10.0790

          k =-0.5091 0.5398-1.1900 (  2442 PWs)   bands (ev):

   -11.5028 -10.6057  -9.6870  -8.3891  -7.1291  -6.9276  -6.2473  -4.6621
    -4.0111  -2.0705  -1.7735  -1.0119   0.6205   1.9644   2.4927   3.9314
     6.3877   7.4362   8.1852  10.0786

          k =-0.5091 0.5396-0.5949 (  2450 PWs)   bands (ev):

   -13.5638 -12.6364 -11.6413  -8.9584  -6.9930  -3.6450  -3.6210  -2.4228
    -2.1319  -1.7931  -0.6428  -0.3114  -0.1370   0.5318   0.7370   3.5549
     6.8887  10.2479  10.9378  11.9329

     the Fermi energy is     4.4653 ev

!    total energy              =     -91.15974967 Ry
     Harris-Foulkes estimate   =     -91.15974967 Ry
     estimated scf accuracy    <          4.3E-12 Ry

     The total energy is the sum of the following terms:

     one-electron contribution =     -53.27179630 Ry
     hartree contribution      =      40.18753827 Ry
     xc contribution           =     -27.95956002 Ry
     ewald contribution        =     -50.11668693 Ry
     smearing contrib. (-TS)   =       0.00075531 Ry

     convergence has been achieved in   8 iterations

     Forces acting on atoms (cartesian axes, Ry/au):

     atom    1 type  1   force =     0.00028012   -0.00001945    0.00008024
     atom    2 type  1   force =    -0.00000911    0.00046777    0.00007577
     atom    3 type  1   force =    -0.00050271   -0.00035094    0.00014058
     atom    4 type  1   force =     0.00044717    0.00024533   -0.00014148
     atom    5 type  1   force =     0.00023375   -0.00009836   -0.00007927
     atom    6 type  1   force =    -0.00014526   -0.00070107    0.00014173
     atom    7 type  1   force =    -0.00029418   -0.00001521   -0.00007549
     atom    8 type  1   force =    -0.00000978    0.00047193   -0.00014209

     Total force =     0.001387     Total SCF correction =     0.000001


     Computing stress (Cartesian axis) and pressure

          total   stress  (Ry/bohr**3)                   (kbar)     P=       -1.58
  -0.00000153  -0.00002124  -0.00000006           -0.23       -3.12       -0.01
  -0.00002124  -0.00001548   0.00000002           -3.12       -2.28        0.00
  -0.00000006   0.00000002  -0.00001516           -0.01        0.00       -2.23


     number of scf cycles    =   6
     number of bfgs steps    =   4

     enthalpy old            =     -91.1596880894 Ry
     enthalpy new            =     -91.1597108836 Ry

     CASE: enthalpy_new < enthalpy_old

     new trust radius        =       0.0066776654 bohr
     new conv_thr            =            1.0E-10 Ry

     new unit-cell volume =    569.56328 a.u.^3 (    84.40057 Ang^3 )
     density =      1.88875 g/cm^3

CELL_PARAMETERS (bohr)
  13.839117471   0.172535469   0.000299361
   0.234513270   8.810631893   0.003304510
   0.000730253  -0.000503593   4.672729665

ATOMIC_POSITIONS (crystal)
C             0.6794693969        0.0539812405        0.3532632659
C             0.5954112864        0.1364659621        0.8532656630
C             0.8466430403        0.8896369691        0.3532572868
C             0.4286218974        0.3018126954        0.8533139222
C             0.1795443215        0.5541745564        0.3532938428
C             0.9304065213        0.8063846249        0.8532571438
C             0.0963725645        0.6389326135        0.8532916767
C             0.3451399717        0.3857833380        0.3533141989



     Writing output data file ./pp.save/
     NEW-OLD atomic charge density approx. for the potential
     extrapolated charge   31.94395, renormalised to   32.00000

     total cpu time spent up to now is       59.4 secs

     Self-consistent Calculation

     iteration #  1     ecut=    40.00 Ry     beta= 0.50
     Davidson diagonalization with overlap
     ethr =  1.00E-06,  avg # of iterations =  2.2

     total cpu time spent up to now is       61.7 secs

     total energy              =     -91.15969193 Ry
     Harris-Foulkes estimate   =     -91.23621769 Ry
     estimated scf accuracy    <       0.00004230 Ry

     iteration #  2     ecut=    40.00 Ry     beta= 0.50
     Davidson diagonalization with overlap
     ethr =  1.32E-07,  avg # of iterations =  3.1

     total cpu time spent up to now is       64.5 secs

     total energy              =     -91.15978749 Ry
     Harris-Foulkes estimate   =     -91.15979790 Ry
     estimated scf accuracy    <       0.00003197 Ry

     iteration #  3     ecut=    40.00 Ry     beta= 0.50
     Davidson diagonalization with overlap
     ethr =  9.99E-08,  avg # of iterations =  1.0

     total cpu time spent up to now is       66.1 secs

     total energy              =     -91.15978095 Ry
     Harris-Foulkes estimate   =     -91.15978853 Ry
     estimated scf accuracy    <       0.00001156 Ry

     iteration #  4     ecut=    40.00 Ry     beta= 0.50
     Davidson diagonalization with overlap
     ethr =  3.61E-08,  avg # of iterations =  2.0

     total cpu time spent up to now is       68.4 secs

     total energy              =     -91.15978342 Ry
     Harris-Foulkes estimate   =     -91.15978353 Ry
     estimated scf accuracy    <       0.00000031 Ry

     iteration #  5     ecut=    40.00 Ry     beta= 0.50
     Davidson diagonalization with overlap
     ethr =  9.63E-10,  avg # of iterations =  2.1

     total cpu time spent up to now is       70.5 secs

     total energy              =     -91.15978341 Ry
     Harris-Foulkes estimate   =     -91.15978345 Ry
     estimated scf accuracy    <       0.00000009 Ry

     iteration #  6     ecut=    40.00 Ry     beta= 0.50
     Davidson diagonalization with overlap
     ethr =  2.88E-10,  avg # of iterations =  2.0

     total cpu time spent up to now is       72.7 secs

     total energy              =     -91.15978341 Ry
     Harris-Foulkes estimate   =     -91.15978341 Ry
     estimated scf accuracy    <          9.9E-09 Ry

     iteration #  7     ecut=    40.00 Ry     beta= 0.50
     Davidson diagonalization with overlap
     ethr =  3.10E-11,  avg # of iterations =  2.0

     total cpu time spent up to now is       75.1 secs

     total energy              =     -91.15978341 Ry
     Harris-Foulkes estimate   =     -91.15978341 Ry
     estimated scf accuracy    <          3.9E-09 Ry

     iteration #  8     ecut=    40.00 Ry     beta= 0.50
     Davidson diagonalization with overlap
     ethr =  1.22E-11,  avg # of iterations =  2.0

     total cpu time spent up to now is       77.6 secs

     End of self-consistent calculation

          k = 0.0000 0.0000 0.0000 (  2433 PWs)   bands (ev):

   -14.3459 -12.8383 -12.8383  -9.0096  -8.0406  -2.2278  -2.2272  -2.0328
    -1.2595  -0.7430  -0.7428   0.1318   0.1318   2.1324   2.1811   2.6868
     6.5711   8.4818  12.0663  12.0670

          k =-0.0000-0.0002 0.5951 (  2444 PWs)   bands (ev):

   -13.6419 -12.1503 -12.1503  -8.4061  -7.4983  -3.6729  -2.9943  -2.9943
    -1.3819  -1.3816  -1.2136  -0.0801   0.0549   0.0554   0.7071   3.5472
     6.3241   9.3911  11.1591  11.1598

          k =-0.0000-0.0004 1.1901 (  2442 PWs)   bands (ev):

   -11.5713 -10.1506 -10.1505  -8.4056  -6.7046  -6.7045  -6.6095  -4.9710
    -3.7009  -2.2885  -1.2695  -1.2694   1.1178   2.1146   2.1152   4.3016
     6.0668   7.7299   7.7309   9.9760

          k =-0.0066 0.5262 0.0001 (  2454 PWs)   bands (ev):

   -14.1508 -13.6255 -11.7475 -10.3262  -6.5205  -4.4342  -2.1982  -1.9659
    -1.0911  -0.6080  -0.1293   0.9095   1.0215   1.4928   1.8320   2.1044
     7.8877  10.1115  10.2811  11.8931

          k =-0.0066 0.5259 0.5951 (  2444 PWs)   bands (ev):

   -13.4496 -12.9304 -11.0735  -9.6826  -6.0928  -4.3682  -3.4497  -2.7237
    -1.8464  -1.3680  -1.1350  -0.7420   0.0316   0.7381   1.6602   2.8769
     7.4836   9.3636  10.9760  12.7761

          k =-0.0066 0.5257 1.1902 (  2445 PWs)   bands (ev):

   -11.3885 -10.8921  -9.1878  -8.4301  -7.3808  -7.3523  -5.7230  -4.5406
    -3.9363  -2.4240  -1.5938  -0.9826   0.9867   1.1819   3.1405   3.8434
     6.4497   6.9245   8.9321   9.7318

          k =-0.0065 0.5266-1.1900 (  2445 PWs)   bands (ev):

   -11.3884 -10.8921  -9.1878  -8.4302  -7.3808  -7.3523  -5.7230  -4.5406
    -3.9363  -2.4240  -1.5937  -0.9827   0.9859   1.1820   3.1406   3.8442
     6.4504   6.9245   8.9319   9.7311

          k =-0.0065 0.5264-0.5950 (  2443 PWs)   bands (ev):

   -13.4496 -12.9304 -11.0735  -9.6826  -6.0929  -4.3682  -3.4498  -2.7237
    -1.8463  -1.3684  -1.1349  -0.7420   0.0315   0.7382   1.6603   2.8773
     7.4840   9.3635  10.9781  12.7760

          k =-0.5025 0.0134 0.0001 (  2456 PWs)   bands (ev):

   -13.9644 -13.9634 -11.0291 -11.0287  -5.4941  -5.4940  -1.7481  -1.7362
    -0.8910  -0.8909   0.7626   0.7629   1.0710   1.0744   1.4625   1.4628
     8.8975   8.9034   9.4598   9.4840

          k =-0.5025 0.0132 0.5951 (  2440 PWs)   bands (ev):

   -13.2639 -13.2629 -10.3706 -10.3703  -5.2060  -5.2059  -3.1688  -3.1687
    -1.2689  -1.2687  -0.9324  -0.9209   0.4997   0.4998   1.8478   1.8510
     8.4245   8.4251  10.3514  10.3752

          k =-0.5025 0.0129 1.1902 (  2444 PWs)   bands (ev):

   -11.2065 -11.2057  -8.6861  -8.6858  -7.5327  -7.5321  -5.1203  -5.1199
    -3.1658  -3.1656  -1.2026  -1.2024   1.3427   1.3524   3.3791   3.3825
     6.6586   6.6674   9.1313   9.1361

          k =-0.5090 0.5395 0.0001 (  2462 PWs)   bands (ev):

   -14.2477 -13.3149 -12.3052  -9.5637  -7.4894  -3.3141  -2.6222  -1.2101
    -1.1474  -0.9114  -0.2717  -0.2458   0.5714   1.9655   2.0863   2.7672
     7.3967  10.0629  11.1293  11.6182

          k =-0.5090 0.5393 0.5952 (  2449 PWs)   bands (ev):

   -13.5470 -12.6203 -11.6245  -8.9416  -6.9767  -3.6285  -3.6047  -2.4064
    -2.1152  -1.7792  -0.6260  -0.2950  -0.1171   0.5464   0.7537   3.5725
     6.9059  10.2640  10.9595  11.9493

          k =-0.5090 0.5391 1.1902 (  2443 PWs)   bands (ev):

   -11.4861 -10.5896  -9.6704  -8.3726  -7.1130  -6.9109  -6.2307  -4.6457
    -3.9946  -2.0540  -1.7566  -0.9951   0.6349   1.9837   2.5076   3.9457
     6.4051   7.4533   8.2016  10.0966

          k =-0.5090 0.5400-1.1900 (  2442 PWs)   bands (ev):

   -11.4861 -10.5896  -9.6704  -8.3727  -7.1130  -6.9109  -6.2307  -4.6457
    -3.9945  -2.0540  -1.7565  -0.9950   0.6344   1.9832   2.5082   3.9462
     6.4055   7.4539   8.2008  10.0961

          k =-0.5090 0.5398-0.5949 (  2450 PWs)   bands (ev):

   -13.5470 -12.6202 -11.6245  -8.9417  -6.9766  -3.6285  -3.6048  -2.4064
    -2.1152  -1.7795  -0.6260  -0.2950  -0.1174   0.5468   0.7536   3.5727
     6.9062  10.2643  10.9605  11.9488

     the Fermi energy is     4.4857 ev

!    total energy              =     -91.15978341 Ry
     Harris-Foulkes estimate   =     -91.15978341 Ry
     estimated scf accuracy    <          8.7E-12 Ry

     The total energy is the sum of the following terms:

     one-electron contribution =     -52.93415541 Ry
     hartree contribution      =      40.03824575 Ry
     xc contribution           =     -27.95972323 Ry
     ewald contribution        =     -50.30488674 Ry
     smearing contrib. (-TS)   =       0.00073622 Ry

     convergence has been achieved in   8 iterations

     Forces acting on atoms (cartesian axes, Ry/au):

     atom    1 type  1   force =     0.00025214   -0.00007792   -0.00000012
     atom    2 type  1   force =    -0.00008590    0.00037415    0.00004055
     atom    3 type  1   force =    -0.00043810   -0.00024951    0.00000918
     atom    4 type  1   force =     0.00047595    0.00027241   -0.00004541
     atom    5 type  1   force =     0.00018926   -0.00018457    0.00000887
     atom    6 type  1   force =    -0.00008934   -0.00062503    0.00003169
     atom    7 type  1   force =    -0.00032537   -0.00006385   -0.00002607
     atom    8 type  1   force =     0.00002135    0.00055432   -0.00001870

     Total force =     0.001290     Total SCF correction =     0.000003


     Computing stress (Cartesian axis) and pressure

          total   stress  (Ry/bohr**3)                   (kbar)     P=       -1.58
  -0.00000079  -0.00002158  -0.00000008           -0.12       -3.17       -0.01
  -0.00002158  -0.00001492   0.00000002           -3.17       -2.20        0.00
  -0.00000008   0.00000002  -0.00001652           -0.01        0.00       -2.43


     number of scf cycles    =   7
     number of bfgs steps    =   5

     enthalpy old            =     -91.1597108836 Ry
     enthalpy new            =     -91.1597446929 Ry

     CASE: enthalpy_new < enthalpy_old

     new trust radius        =       0.0100253771 bohr
     new conv_thr            =            1.0E-10 Ry

     new unit-cell volume =    568.06440 a.u.^3 (    84.17846 Ang^3 )
     density =      1.89374 g/cm^3

CELL_PARAMETERS (bohr)
  13.825401182   0.154554895   0.000299624
   0.223036058   8.795649425   0.003306860
   0.000730309  -0.000502405   4.672776707

ATOMIC_POSITIONS (crystal)
C             0.6794895588        0.0540351664        0.3533658051
C             0.5954709806        0.1366212688        0.8533323430
C             0.8465625378        0.8894276265        0.3534323284
C             0.4286752073        0.3019491497        0.8531660836
C             0.1795617486        0.5542180109        0.3531834110
C             0.9303166088        0.8061550075        0.8534118287
C             0.0963541422        0.6388842218        0.8532181410
C             0.3451782159        0.3858815484        0.3531470592



     Writing output data file ./pp.save/
     NEW-OLD atomic charge density approx. for the potential
     extrapolated charge   31.91557, renormalised to   32.00000

     total cpu time spent up to now is       77.7 secs

     Self-consistent Calculation

     iteration #  1     ecut=    40.00 Ry     beta= 0.50
     Davidson diagonalization with overlap
     ethr =  1.00E-06,  avg # of iterations =  3.3

     total cpu time spent up to now is       80.9 secs

     total energy              =     -91.15962541 Ry
     Harris-Foulkes estimate   =     -91.27377593 Ry
     estimated scf accuracy    <       0.00009636 Ry

     iteration #  2     ecut=    40.00 Ry     beta= 0.50
     Davidson diagonalization with overlap
     ethr =  3.01E-07,  avg # of iterations =  3.1

     total cpu time spent up to now is       84.3 secs

     total energy              =     -91.15984179 Ry
     Harris-Foulkes estimate   =     -91.15986536 Ry
     estimated scf accuracy    <       0.00007234 Ry

     iteration #  3     ecut=    40.00 Ry     beta= 0.50
     Davidson diagonalization with overlap
     ethr =  2.26E-07,  avg # of iterations =  1.0

     total cpu time spent up to now is       86.2 secs

     total energy              =     -91.15982652 Ry
     Harris-Foulkes estimate   =     -91.15984407 Ry
     estimated scf accuracy    <       0.00002623 Ry

     iteration #  4     ecut=    40.00 Ry     beta= 0.50
     Davidson diagonalization with overlap
     ethr =  8.20E-08,  avg # of iterations =  2.0

     total cpu time spent up to now is       88.8 secs

     total energy              =     -91.15983236 Ry
     Harris-Foulkes estimate   =     -91.15983302 Ry
     estimated scf accuracy    <       0.00000130 Ry

     iteration #  5     ecut=    40.00 Ry     beta= 0.50
     Davidson diagonalization with overlap
     ethr =  4.05E-09,  avg # of iterations =  2.0

     total cpu time spent up to now is       91.4 secs

     total energy              =     -91.15983244 Ry
     Harris-Foulkes estimate   =     -91.15983249 Ry
     estimated scf accuracy    <       0.00000011 Ry

     iteration #  6     ecut=    40.00 Ry     beta= 0.50
     Davidson diagonalization with overlap
     ethr =  3.58E-10,  avg # of iterations =  2.0

     total cpu time spent up to now is       93.9 secs

     total energy              =     -91.15983244 Ry
     Harris-Foulkes estimate   =     -91.15983245 Ry
     estimated scf accuracy    <       0.00000001 Ry

     iteration #  7     ecut=    40.00 Ry     beta= 0.50
     Davidson diagonalization with overlap
     ethr =  4.13E-11,  avg # of iterations =  2.0

     total cpu time spent up to now is       96.6 secs

     total energy              =     -91.15983244 Ry
     Harris-Foulkes estimate   =     -91.15983245 Ry
     estimated scf accuracy    <          5.2E-09 Ry

     iteration #  8     ecut=    40.00 Ry     beta= 0.50
     Davidson diagonalization with overlap
     ethr =  1.64E-11,  avg # of iterations =  2.0

     total cpu time spent up to now is       99.4 secs

     total energy              =     -91.15983245 Ry
     Harris-Foulkes estimate   =     -91.15983245 Ry
     estimated scf accuracy    <          1.7E-10 Ry

     iteration #  9     ecut=    40.00 Ry     beta= 0.50
     Davidson diagonalization with overlap
     ethr =  5.37E-13,  avg # of iterations =  1.9

     total cpu time spent up to now is      101.9 secs

     End of self-consistent calculation

          k = 0.0000 0.0000 0.0000 (  2433 PWs)   bands (ev):

   -14.3219 -12.8133 -12.8132  -8.9838  -8.0154  -2.2027  -2.2022  -2.0018
    -1.2351  -0.7201  -0.7195   0.1565   0.1565   2.1575   2.2060   2.7081
     6.5920   8.5162  12.1093  12.1131

          k =-0.0000-0.0002 0.5950 (  2444 PWs)   bands (ev):

   -13.6179 -12.1253 -12.1252  -8.3804  -7.4732  -3.6485  -2.9695  -2.9695
    -1.3568  -1.3566  -1.1828  -0.0550   0.0779   0.0787   0.7321   3.5685
     6.3469   9.4250  11.1842  11.1849

          k =-0.0000-0.0004 1.1901 (  2442 PWs)   bands (ev):

   -11.5471 -10.1256 -10.1255  -8.3813  -6.6797  -6.6796  -6.5840  -4.9459
    -3.6756  -2.2635  -1.2445  -1.2444   1.1478   2.1378   2.1386   4.3291
     6.0884   7.7534   7.7546   9.9983

          k =-0.0059 0.5270 0.0001 (  2454 PWs)   bands (ev):

   -14.1260 -13.5999 -11.7232 -10.3015  -6.4953  -4.4093  -2.1731  -1.9465
    -1.0665  -0.5832  -0.1041   0.9396   1.0461   1.5180   1.8568   2.1308
     7.9108  10.1566  10.3082  11.9262

          k =-0.0059 0.5268 0.5951 (  2444 PWs)   bands (ev):

   -13.4248 -12.9048 -11.0492  -9.6579  -6.0676  -4.3433  -3.4250  -2.6988
    -1.8218  -1.3429  -1.1155  -0.7172   0.0567   0.7632   1.6899   2.9034
     7.5070   9.3883  11.0200  12.8039

          k =-0.0059 0.5266 1.1902 (  2445 PWs)   bands (ev):

   -11.3638 -10.8667  -9.1634  -8.4055  -7.3556  -7.3274  -5.6986  -4.5158
    -3.9111  -2.3991  -1.5687  -0.9576   1.0117   1.2022   3.1668   3.8690
     6.4747   6.9487   8.9600   9.7574

          k =-0.0059 0.5275-1.1900 (  2445 PWs)   bands (ev):

   -11.3637 -10.8667  -9.1634  -8.4055  -7.3556  -7.3274  -5.6985  -4.5158
    -3.9112  -2.3991  -1.5686  -0.9577   1.0109   1.2023   3.1668   3.8697
     6.4754   6.9486   8.9599   9.7567

[...]
     Harris-Foulkes estimate   =     -91.16070605 Ry
     estimated scf accuracy    <       0.00020437 Ry

     iteration #  3     ecut=    40.00 Ry     beta= 0.50
     Davidson diagonalization with overlap
     ethr =  6.39E-07,  avg # of iterations =  1.0

     total cpu time spent up to now is     2002.3 secs

     total energy              =     -91.16061423 Ry
     Harris-Foulkes estimate   =     -91.16065407 Ry
     estimated scf accuracy    <       0.00007453 Ry

     iteration #  4     ecut=    40.00 Ry     beta= 0.50
     Davidson diagonalization with overlap
     ethr =  2.33E-07,  avg # of iterations =  2.0

     total cpu time spent up to now is     2016.7 secs

     total energy              =     -91.16063120 Ry
     Harris-Foulkes estimate   =     -91.16063378 Ry
     estimated scf accuracy    <       0.00000735 Ry

     iteration #  5     ecut=    40.00 Ry     beta= 0.50
     Davidson diagonalization with overlap
     ethr =  2.30E-08,  avg # of iterations =  1.0

     total cpu time spent up to now is     2026.9 secs

     total energy              =     -91.16063062 Ry
     Harris-Foulkes estimate   =     -91.16063151 Ry
     estimated scf accuracy    <       0.00000233 Ry

     iteration #  6     ecut=    40.00 Ry     beta= 0.50
     Davidson diagonalization with overlap
     ethr =  7.27E-09,  avg # of iterations =  1.7

     total cpu time spent up to now is     2039.2 secs

     total energy              =     -91.16063033 Ry
     Harris-Foulkes estimate   =     -91.16063073 Ry
     estimated scf accuracy    <       0.00000060 Ry

     iteration #  7     ecut=    40.00 Ry     beta= 0.50
     Davidson diagonalization with overlap
     ethr =  1.88E-09,  avg # of iterations =  2.0

     total cpu time spent up to now is     2053.8 secs

     total energy              =     -91.16063047 Ry
     Harris-Foulkes estimate   =     -91.16063049 Ry
     estimated scf accuracy    <       0.00000004 Ry

     iteration #  8     ecut=    40.00 Ry     beta= 0.50
     Davidson diagonalization with overlap
     ethr =  1.13E-10,  avg # of iterations =  2.2

     total cpu time spent up to now is     2069.1 secs

     total energy              =     -91.16063048 Ry
     Harris-Foulkes estimate   =     -91.16063048 Ry
     estimated scf accuracy    <          1.8E-10 Ry

     iteration #  9     ecut=    40.00 Ry     beta= 0.50
     Davidson diagonalization with overlap
     ethr =  5.56E-13,  avg # of iterations =  3.2

     total cpu time spent up to now is     2087.8 secs

     End of self-consistent calculation

          k = 0.0000 0.0000 0.0000 (  2433 PWs)   bands (ev):

   -13.8265 -12.2776 -12.2768  -8.4727  -7.5039  -1.6995  -1.6987  -1.3394
    -0.7162  -0.3828  -0.3821   0.6816   0.6822   2.6730   2.7286   3.2794
     7.1948   9.2512  12.9207  13.0685

          k = 0.0002 0.0001 0.5952 (  2444 PWs)   bands (ev):

   -13.1212 -11.5903 -11.5895  -7.8686  -6.9615  -3.1350  -2.4492  -2.4482
    -0.8453  -0.8447  -0.5246   0.4212   0.4227   0.4652   1.2474   4.1381
     6.9368  10.1488  11.6925  11.6941

          k = 0.0004 0.0002 1.1903 (  2442 PWs)   bands (ev):

   -11.0468  -9.5920  -9.5912  -7.8752  -6.1501  -6.1494  -6.0701  -4.4330
    -3.1588  -1.7489  -0.7361  -0.7355   1.7903   2.5051   2.5076   4.9372
     6.6516   8.1370   8.1398  10.5473

          k = 0.0183 0.5162 0.0003 (  2454 PWs)   bands (ev):

   -13.6176 -13.0665 -11.2143  -9.8096  -5.9612  -3.8860  -1.5952  -1.5333
    -0.5452  -0.0577   0.4017   1.4649   1.5675   2.0325   2.3776   2.8278
     8.2933  10.6664  10.9122  12.9396

          k = 0.0185 0.5163 0.5955 (  2444 PWs)   bands (ev):

   -12.9156 -12.3719 -10.5397  -9.1643  -5.5357  -3.8187  -2.9059  -2.1735
    -1.3058  -0.7678  -0.6992  -0.2041   0.5679   1.2824   2.2155   3.5999
     7.9142   9.7999  11.7637  13.3681

          k = 0.0187 0.5163 1.1906 (  2445 PWs)   bands (ev):

   -10.8524 -10.3351  -8.6500  -7.8978  -6.8279  -6.8210  -5.1846  -4.0098
    -3.3838  -1.8795  -1.0456  -0.4422   1.5809   1.6312   3.6669   4.4854
     7.0299   7.4009   9.4810  10.3640

          k = 0.0179 0.5160-1.1900 (  2445 PWs)   bands (ev):

   -10.8528 -10.3349  -8.6501  -7.8972  -6.8277  -6.8211  -5.1848  -4.0100
    -3.3837  -1.8796  -1.0456  -0.4422   1.5836   1.6306   3.6657   4.4832
     7.0278   7.4015   9.4827  10.3657

          k = 0.0181 0.5161-0.5949 (  2443 PWs)   bands (ev):

   -12.9158 -12.3718 -10.5396  -9.1641  -5.5358  -3.8184  -2.9056  -2.1739
    -1.3062  -0.7662  -0.6996  -0.2041   0.5682   1.2822   2.2144   3.5992
     7.9127   9.8010  11.7576  13.3694

          k =-0.5417-0.0132-0.0001 (  2456 PWs)   bands (ev):

   -13.4296 -13.4276 -10.4685 -10.4672  -4.9734  -4.9726  -1.1930  -1.1914
    -0.3472  -0.3428   1.3008   1.3043   1.4723   1.4736   2.0102   2.0148
     9.6406   9.6436  10.5960  10.5964

          k =-0.5415-0.0131 0.5951 (  2440 PWs)   bands (ev):

   -12.7286 -12.7266  -9.8108  -9.8095  -4.6808  -4.6800  -2.6299  -2.6262
    -0.7192  -0.7161  -0.3779  -0.3757   1.0374   1.0405   2.2535   2.2548
     9.1020   9.1043  11.4569  11.4618

          k =-0.5413-0.0131 1.1902 (  2444 PWs)   bands (ev):

   -10.6696 -10.6675  -8.1326  -8.1317  -6.9897  -6.9882  -4.5665  -4.5643
    -2.6370  -2.6364  -0.6685  -0.6673   1.8921   1.8949   3.8388   3.8404
     7.2100   7.2117   9.5903   9.5907

          k =-0.5234 0.5030 0.0002 (  2462 PWs)   bands (ev):

   -13.6883 -12.7973 -11.7728  -9.0074  -6.9597  -2.7722  -2.2039  -0.6599
    -0.5971  -0.1834   0.2718   0.3900   1.1178   2.5001   2.6349   3.1728
     7.9310  10.6449  11.6685  13.0381

          k =-0.5232 0.5030 0.5954 (  2449 PWs)   bands (ev):

   -12.9880 -12.1012 -11.0914  -8.3861  -6.4449  -3.0900  -3.0535  -1.8625
    -1.5744  -1.3586  -0.0781   0.2538   0.6035   1.1795   1.2897   3.9762
     7.4489  10.8400  11.5399  12.4584

          k =-0.5230 0.5031 1.1905 (  2443 PWs)   bands (ev):

   -10.9284 -10.0664  -9.1357  -7.8168  -6.5830  -6.3605  -5.6916  -4.1104
    -3.4445  -1.5177  -1.2141  -0.4507   1.0653   2.6726   3.1343   4.3841
     6.8834   8.1175   8.8166  10.5691

          k =-0.5238 0.5028-1.1901 (  2442 PWs)   bands (ev):

   -10.9286 -10.0666  -9.1353  -7.8167  -6.5831  -6.3602  -5.6918  -4.1104
    -3.4446  -1.5177  -1.2140  -0.4507   1.0671   2.6735   3.1325   4.3819
     6.8827   8.1157   8.8199  10.5705

          k =-0.5236 0.5029-0.5950 (  2450 PWs)   bands (ev):

   -12.9881 -12.1012 -11.0912  -8.3861  -6.4447  -3.0903  -3.0534  -1.8624
    -1.5741  -1.3577  -0.0784   0.2536   0.6040   1.1783   1.2898   3.9752
     7.4485  10.8395  11.5382  12.4603

     the Fermi energy is     5.1719 ev

!    total energy              =     -91.16063048 Ry
     Harris-Foulkes estimate   =     -91.16063048 Ry
     estimated scf accuracy    <          1.9E-11 Ry

     The total energy is the sum of the following terms:

     one-electron contribution =     -42.54202896 Ry
     hartree contribution      =      35.48263693 Ry
     xc contribution           =     -27.96533448 Ry
     ewald contribution        =     -56.13624486 Ry
     smearing contrib. (-TS)   =       0.00034089 Ry

     convergence has been achieved in   9 iterations

     Forces acting on atoms (cartesian axes, Ry/au):

     atom    1 type  1   force =     0.00023590    0.00024380    0.00024390
     atom    2 type  1   force =    -0.00061196   -0.00048624    0.00046679
     atom    3 type  1   force =     0.00069026    0.00025656   -0.00003246
     atom    4 type  1   force =     0.00073126   -0.00050997   -0.00054948
     atom    5 type  1   force =    -0.00000022   -0.00017836    0.00009922
     atom    6 type  1   force =    -0.00057764   -0.00010954    0.00003448
     atom    7 type  1   force =    -0.00031508    0.00008479    0.00009436
     atom    8 type  1   force =    -0.00015252    0.00069895   -0.00035681

     Total force =     0.001946     Total SCF correction =     0.000009


     Computing stress (Cartesian axis) and pressure

          total   stress  (Ry/bohr**3)                   (kbar)     P=       -0.28
   0.00000498  -0.00000257  -0.00000032            0.73       -0.38       -0.05
  -0.00000257   0.00000320   0.00000026           -0.38        0.47        0.04
  -0.00000032   0.00000026  -0.00001386           -0.05        0.04       -2.04


     number of scf cycles    =  36
     number of bfgs steps    =  34

     enthalpy old            =     -91.1605691487 Ry
     enthalpy new            =     -91.1605938579 Ry

     CASE: enthalpy_new < enthalpy_old

     new trust radius        =       0.0177934064 bohr
     new conv_thr            =            1.0E-10 Ry

     new unit-cell volume =    539.98918 a.u.^3 (    80.01814 Ang^3 )
     density =      1.99219 g/cm^3

CELL_PARAMETERS (bohr)
  12.828052889  -0.447778048  -0.004567436
  -0.216334655   9.019174410  -0.001240042
  -0.000772523  -0.002726914   4.671123644

ATOMIC_POSITIONS (crystal)
C             0.6794825787        0.0539839619        0.3531599146
C             0.5958989830        0.1378208058        0.8531630577
C             0.8458523491        0.8877179340        0.3533262388
C             0.4295012517        0.3040284182        0.8534214508
C             0.1795171718        0.5540154780        0.3532107986
C             0.9296108884        0.8041631593        0.8533354521
C             0.0959295913        0.6378155705        0.8532151557
C             0.3458161860        0.3876266723        0.3534249317



     Writing output data file ./pp.save/
     NEW-OLD atomic charge density approx. for the potential
     extrapolated charge   32.07770, renormalised to   32.00000

     total cpu time spent up to now is     2088.3 secs

     Self-consistent Calculation

     iteration #  1     ecut=    40.00 Ry     beta= 0.50
     Davidson diagonalization with overlap
     ethr =  1.00E-06,  avg # of iterations =  3.8

     total cpu time spent up to now is     2109.8 secs

     total energy              =     -91.16047466 Ry
     Harris-Foulkes estimate   =     -91.07572182 Ry
     estimated scf accuracy    <       0.00007174 Ry

     iteration #  2     ecut=    40.00 Ry     beta= 0.50
     Davidson diagonalization with overlap
     ethr =  2.24E-07,  avg # of iterations =  3.1

     total cpu time spent up to now is     2129.2 secs

     total energy              =     -91.16064268 Ry
     Harris-Foulkes estimate   =     -91.16066113 Ry
     estimated scf accuracy    <       0.00005866 Ry

     iteration #  3     ecut=    40.00 Ry     beta= 0.50
     Davidson diagonalization with overlap
     ethr =  1.83E-07,  avg # of iterations =  1.0

     total cpu time spent up to now is     2139.7 secs

     total energy              =     -91.16062991 Ry
     Harris-Foulkes estimate   =     -91.16064448 Ry
     estimated scf accuracy    <       0.00002205 Ry

     iteration #  4     ecut=    40.00 Ry     beta= 0.50
     Davidson diagonalization with overlap
     ethr =  6.89E-08,  avg # of iterations =  2.0

     total cpu time spent up to now is     2154.7 secs

     total energy              =     -91.16063503 Ry
     Harris-Foulkes estimate   =     -91.16063561 Ry
     estimated scf accuracy    <       0.00000153 Ry

     iteration #  5     ecut=    40.00 Ry     beta= 0.50
     Davidson diagonalization with overlap
     ethr =  4.77E-09,  avg # of iterations =  1.2

     total cpu time spent up to now is     2166.0 secs

     total energy              =     -91.16063497 Ry
     Harris-Foulkes estimate   =     -91.16063511 Ry
     estimated scf accuracy    <       0.00000040 Ry

     iteration #  6     ecut=    40.00 Ry     beta= 0.50
     Davidson diagonalization with overlap
     ethr =  1.26E-09,  avg # of iterations =  1.8

     total cpu time spent up to now is     2179.2 secs

     total energy              =     -91.16063491 Ry
     Harris-Foulkes estimate   =     -91.16063498 Ry
     estimated scf accuracy    <       0.00000011 Ry

     iteration #  7     ecut=    40.00 Ry     beta= 0.50
     Davidson diagonalization with overlap
     ethr =  3.48E-10,  avg # of iterations =  2.0

     total cpu time spent up to now is     2194.4 secs

     total energy              =     -91.16063494 Ry
     Harris-Foulkes estimate   =     -91.16063494 Ry
     estimated scf accuracy    <          5.0E-09 Ry

     iteration #  8     ecut=    40.00 Ry     beta= 0.50
     Davidson diagonalization with overlap
     ethr =  1.56E-11,  avg # of iterations =  2.1

     total cpu time spent up to now is     2209.8 secs

     End of self-consistent calculation

          k = 0.0000 0.0000 0.0000 (  2433 PWs)   bands (ev):

   -13.8509 -12.3033 -12.3030  -8.5005  -7.5307  -1.7254  -1.7250  -1.3729
    -0.7377  -0.4087  -0.4084   0.6595   0.6604   2.6468   2.7064   3.2636
     7.1813   9.2145  12.9053  13.0416

          k = 0.0002 0.0001 0.5953 (  2444 PWs)   bands (ev):

   -13.1454 -11.6157 -11.6153  -7.8961  -6.9877  -3.1576  -2.4726  -2.4721
    -0.8705  -0.8700  -0.5576   0.3956   0.3968   0.4417   1.2217   4.1224
     6.9193  10.1131  11.6681  11.6698

          k = 0.0004 0.0002 1.1905 (  2442 PWs)   bands (ev):

   -11.0705  -9.6167  -9.6163  -7.8980  -6.1742  -6.1737  -6.0968  -4.4594
    -3.1842  -1.7747  -0.7619  -0.7617   1.7593   2.4806   2.4828   4.9108
     6.6360   8.1129   8.1158  10.5313

          k = 0.0180 0.5142 0.0003 (  2454 PWs)   bands (ev):

   -13.6433 -13.0935 -11.2390  -9.8355  -5.9879  -3.9117  -1.6196  -1.5508
    -0.5669  -0.0798   0.3750   1.4292   1.5457   2.0060   2.3556   2.8029
     8.2711  10.6338  10.8564  12.9196

          k = 0.0182 0.5143 0.5956 (  2444 PWs)   bands (ev):

   -12.9410 -12.3986 -10.5642  -9.1899  -5.5618  -3.8433  -2.9291  -2.1979
    -1.3289  -0.7920  -0.7167  -0.2273   0.5421   1.2565   2.1806   3.5753
     7.8919   9.7743  11.7099  13.3426

          k = 0.0184 0.5144 1.1908 (  2445 PWs)   bands (ev):

   -10.8771 -10.3609  -8.6740  -7.9213  -6.8525  -6.8465  -5.2081  -4.0342
    -3.4101  -1.9053  -1.0714  -0.4681   1.5573   1.6134   3.6392   4.4620
     7.0072   7.3769   9.4514  10.3417

          k = 0.0175 0.5141-1.1902 (  2445 PWs)   bands (ev):

   -10.8774 -10.3607  -8.6739  -7.9210  -6.8526  -6.8463  -5.2083  -4.0343
    -3.4101  -1.9053  -1.0713  -0.4681   1.5602   1.6126   3.6384   4.4594
     7.0054   7.3772   9.4533  10.3433

          k = 0.0177 0.5142-0.5950 (  2443 PWs)   bands (ev):

   -12.9412 -12.3985 -10.5641  -9.1898  -5.5618  -3.8433  -2.9288  -2.1980
    -1.3290  -0.7903  -0.7172  -0.2275   0.5421   1.2566   2.1796   3.5744
     7.8907   9.7753  11.7036  13.3440

          k =-0.5423-0.0130-0.0001 (  2456 PWs)   bands (ev):

   -13.4539 -13.4530 -10.4951 -10.4948  -4.9999  -4.9994  -1.2241  -1.2236
    -0.3676  -0.3657   1.2760   1.2772   1.4537   1.4541   1.9895   1.9912
     9.6216   9.6227  10.5616  10.5625

          k =-0.5421-0.0129 0.5952 (  2440 PWs)   bands (ev):

   -12.7527 -12.7517  -9.8372  -9.8368  -4.7062  -4.7058  -2.6521  -2.6505
    -0.7418  -0.7408  -0.4087  -0.4071   1.0128   1.0139   2.2350   2.2354
     9.0802   9.0819  11.4237  11.4290

          k =-0.5419-0.0128 1.1904 (  2444 PWs)   bands (ev):

   -10.6931 -10.6920  -8.1571  -8.1568  -7.0139  -7.0132  -4.5908  -4.5901
    -2.6632  -2.6628  -0.6939  -0.6935   1.8630   1.8656   3.8174   3.8184
     7.1860   7.1883   9.5714   9.5718

          k =-0.5244 0.5012 0.0002 (  2462 PWs)   bands (ev):

   -13.7149 -12.8221 -11.7995  -9.0331  -6.9848  -2.7995  -2.2242  -0.6819
    -0.6236  -0.2143   0.2501   0.3721   1.0958   2.4740   2.6129   3.1406
     7.8968  10.6033  11.6508  12.9789

          k =-0.5242 0.5013 0.5955 (  2449 PWs)   bands (ev):

   -13.0143 -12.1258 -11.1178  -8.4116  -6.4697  -3.1145  -3.0769  -1.8860
    -1.5994  -1.3788  -0.1041   0.2307   0.5731   1.1617   1.2645   3.9447
     7.4199  10.8192  11.4994  12.4381

          k =-0.5240 0.5014 1.1907 (  2443 PWs)   bands (ev):

   -10.9539 -10.0905  -9.1610  -7.8408  -6.6068  -6.3856  -5.7163  -4.1357
    -3.4687  -1.5427  -1.2408  -0.4771   1.0454   2.6443   3.1149   4.3623
     6.8538   8.0934   8.7983  10.5413

          k =-0.5248 0.5011-1.1903 (  2442 PWs)   bands (ev):

   -10.9541 -10.0906  -9.1607  -7.8406  -6.6066  -6.3854  -5.7166  -4.1357
    -3.4688  -1.5427  -1.2407  -0.4770   1.0472   2.6454   3.1126   4.3603
     6.8528   8.0919   8.8014  10.5427

          k =-0.5246 0.5012-0.5951 (  2450 PWs)   bands (ev):

   -13.0144 -12.1259 -11.1177  -8.4115  -6.4696  -3.1145  -3.0767  -1.8863
    -1.5994  -1.3778  -0.1041   0.2306   0.5736   1.1602   1.2645   3.9438
     7.4194  10.8190  11.4978  12.4398

     the Fermi energy is     5.1447 ev

!    total energy              =     -91.16063494 Ry
     Harris-Foulkes estimate   =     -91.16063494 Ry
     estimated scf accuracy    <          1.9E-11 Ry

     The total energy is the sum of the following terms:

     one-electron contribution =     -43.01015554 Ry
     hartree contribution      =      35.68798037 Ry
     xc contribution           =     -27.96613381 Ry
     ewald contribution        =     -55.87267304 Ry
     smearing contrib. (-TS)   =       0.00034708 Ry

     convergence has been achieved in   8 iterations

     Forces acting on atoms (cartesian axes, Ry/au):

     atom    1 type  1   force =     0.00024977    0.00021715    0.00014919
     atom    2 type  1   force =    -0.00024536   -0.00033636    0.00020990
     atom    3 type  1   force =     0.00033538    0.00015897   -0.00009638
     atom    4 type  1   force =     0.00011176   -0.00018413   -0.00020870
     atom    5 type  1   force =     0.00011674    0.00001946    0.00019734
     atom    6 type  1   force =    -0.00044573   -0.00014602   -0.00012349
     atom    7 type  1   force =    -0.00015809   -0.00000525    0.00007074
     atom    8 type  1   force =     0.00003553    0.00027618   -0.00019860

     Total force =     0.001011     Total SCF correction =     0.000005


     Computing stress (Cartesian axis) and pressure

          total   stress  (Ry/bohr**3)                   (kbar)     P=        0.18
   0.00000494  -0.00000362   0.00000001            0.73       -0.53        0.00
  -0.00000362   0.00000258   0.00000000           -0.53        0.38        0.00
   0.00000001   0.00000000  -0.00000381            0.00        0.00       -0.56


     number of scf cycles    =  37
     number of bfgs steps    =  35

     enthalpy old            =     -91.1605938579 Ry
     enthalpy new            =     -91.1605982305 Ry

     CASE: enthalpy_new < enthalpy_old

     new trust radius        =       0.0099611109 bohr
     new conv_thr            =            1.0E-10 Ry

     new unit-cell volume =    540.38847 a.u.^3 (    80.07731 Ang^3 )
     density =      1.99072 g/cm^3

CELL_PARAMETERS (bohr)
  12.811040815  -0.451705269  -0.004702842
  -0.220303806   9.038441742  -0.001378955
  -0.000813305  -0.002793845   4.670910711

ATOMIC_POSITIONS (crystal)
C             0.6795034633        0.0539993002        0.3532444343
C             0.5958505646        0.1377113433        0.8532337305
C             0.8459130904        0.8878235577        0.3533244313
C             0.4294813583        0.3039477168        0.8533317567
C             0.1795155619        0.5540132364        0.3532451510
C             0.9296197885        0.8042058620        0.8533132721
C             0.0959203337        0.6378465874        0.8532448458
C             0.3458048393        0.3876243962        0.3533193784



     Writing output data file ./pp.save/
     NEW-OLD atomic charge density approx. for the potential
     extrapolated charge   32.02364, renormalised to   32.00000

     total cpu time spent up to now is     2210.3 secs

     Self-consistent Calculation

     iteration #  1     ecut=    40.00 Ry     beta= 0.50
     Davidson diagonalization with overlap
     ethr =  1.00E-06,  avg # of iterations =  2.9

     Threshold (ethr) on eigenvalues was too large:
     Diagonalizing with lowered threshold

     Davidson diagonalization with overlap
