
     Program PWSCF v.6.5 starts on  9Jul2022 at  8: 9:42 

     This program is part of the open-source Quantum ESPRESSO suite
     for quantum simulation of materials; please cite
         "P. Giannozzi et al., J. Phys.:Condens. Matter 21 395502 (2009);
         "P. Giannozzi et al., J. Phys.:Condens. Matter 29 465901 (2017);
          URL http://www.quantum-espresso.org", 
     in publications or presentations arising from this work. More details at
     http://www.quantum-espresso.org/quote

     Parallel version (MPI), running on    96 processors

     MPI processes distributed on     2 nodes
     R & G space division:  proc/nbgrp/npool/nimage =      96
     Waiting for input...
     Reading input from standard input
     Message from routine read_cards :
     DEPRECATED: no units specified in CELL_PARAMETERS card

     Current dimensions of program PWSCF are:
     Max number of different atomic species (ntypx) = 10
     Max number of k-points (npk) =  40000
     Max angular momentum in pseudopotentials (lmaxx) =  3

     Subspace diagonalization in iterative solution of the eigenvalue problem:
     one sub-group per band group will be used
     scalapack distributed-memory algorithm (size of sub-group:  9*  9 procs)

 
     Parallelization info
     --------------------
     sticks:   dense  smooth     PW     G-vecs:    dense   smooth      PW
     Min          18      18      5                  227      227      37
     Max          19      19      6                  228      228      40
     Sum        1749    1749    527                21853    21853    3629
 


     bravais-lattice index     =            0
     lattice parameter (alat)  =      16.1869  a.u.
     unit-cell volume          =     638.6693 (a.u.)^3
     number of atoms/cell      =            8
     number of atomic types    =            1
     number of electrons       =        32.00
     number of Kohn-Sham states=           20
     kinetic-energy cutoff     =      40.0000  Ry
     charge density cutoff     =     160.0000  Ry
     convergence threshold     =      1.0E-08
     mixing beta               =       0.5000
     number of iterations used =            8  plain     mixing
     Exchange-correlation=  SLA  PW   PBE  PBE
                           (   1   4   3   4   0   0   0)
     nstep                     =          250


     celldm(1)=  16.186937  celldm(2)=   0.000000  celldm(3)=   0.000000
     celldm(4)=   0.000000  celldm(5)=   0.000000  celldm(6)=   0.000000

     crystal axes: (cart. coord. in units of alat)
               a(1) = (   0.999973   0.007345  -0.000093 )  
               a(2) = (   0.014147   0.523583   0.000612 )  
               a(3) = (   0.000025   0.000167   0.287670 )  

     reciprocal axes: (cart. coord. in units 2 pi/alat)
               b(1) = (  1.000225 -0.027026 -0.000070 )  
               b(2) = ( -0.014032  1.910298 -0.001106 )  
               b(3) = (  0.000352 -0.004070  3.476205 )  


     PseudoPot. # 1 for C  read from file:
     ./C.pbe-van_bm.upf
     MD5 check sum: 1a69bf6b8db32088f5b2163dbdb77a27
     Pseudo is Ultrasoft, Zval =  4.0
     Generated by new atomic code, or converted to UPF format
     Using radial grid of  721 points,  4 beta functions with: 
                l(1) =   0
                l(2) =   0
                l(3) =   1
                l(4) =   1
     Q(r) pseudized with  8 coefficients,  rinner =    0.800   0.800   0.800


     atomic species   valence    mass     pseudopotential
        C              4.00    12.00000     C ( 1.00)

     No symmetry found



   Cartesian axes

     site n.     atom                  positions (alat units)
         1           C   tau(   1) = (   0.3061556   0.1080805   0.2656622  )
         2           C   tau(   2) = (   0.3887272   0.1086090   0.1218200  )
         3           C   tau(   3) = (   0.6386920   0.1103980  -0.0220187  )
         4           C   tau(   4) = (   0.1387361   0.1068492   0.2657182  )
         5           C   tau(   5) = (   0.8061526   0.1118088   0.2656639  )
         6           C   tau(   6) = (   0.8887078   0.1123220   0.1218255  )
         7           C   tau(   7) = (   0.5702793   0.6334392   0.1224305  )
         8           C   tau(   8) = (   0.0561452   0.1061676   0.1219009  )

     number of k points=    16  Marzari-Vanderbilt smearing, width (Ry)=  0.0200
                       cart. coord. in units 2pi/alat
        k(    1) = (   0.0000000   0.0000000   0.0000000), wk =   0.0666667
        k(    2) = (   0.0000704  -0.0008140   0.6952410), wk =   0.1333333
        k(    3) = (   0.0001408  -0.0016280   1.3904819), wk =   0.1333333
        k(    4) = (  -0.0046775   0.6367661  -0.0003688), wk =   0.1333333
        k(    5) = (  -0.0046071   0.6359521   0.6948721), wk =   0.1333333
        k(    6) = (  -0.0045367   0.6351381   1.3901131), wk =   0.1333333
        k(    7) = (  -0.0048183   0.6383942  -1.3908507), wk =   0.1333333
        k(    8) = (  -0.0047479   0.6375802  -0.6956098), wk =   0.1333333
        k(    9) = (  -0.5001127   0.0135130   0.0000351), wk =   0.0666667
        k(   10) = (  -0.5000423   0.0126990   0.6952761), wk =   0.1333333
        k(   11) = (  -0.4999719   0.0118850   1.3905170), wk =   0.1333333
        k(   12) = (  -0.5047902   0.6502792  -0.0003337), wk =   0.1333333
        k(   13) = (  -0.5047198   0.6494651   0.6949073), wk =   0.1333333
        k(   14) = (  -0.5046494   0.6486511   1.3901482), wk =   0.1333333
        k(   15) = (  -0.5049310   0.6519072  -1.3908156), wk =   0.1333333
        k(   16) = (  -0.5048606   0.6510932  -0.6955747), wk =   0.1333333

     Dense  grid:    21853 G-vectors     FFT dimensions: (  72,  36,  20)

     Estimated max dynamical RAM per process >       1.80 MB

     Estimated total dynamical RAM >     172.80 MB

     Initial potential from superposition of free atoms

     starting charge   31.99968, renormalised to   32.00000
     Starting wfcs are   32 randomized atomic wfcs

     total cpu time spent up to now is        1.8 secs

     Self-consistent Calculation

     iteration #  1     ecut=    40.00 Ry     beta= 0.50
     Davidson diagonalization with overlap
     ethr =  1.00E-02,  avg # of iterations =  2.4

     total cpu time spent up to now is        2.7 secs

     total energy              =     -91.11571276 Ry
     Harris-Foulkes estimate   =     -91.50321955 Ry
     estimated scf accuracy    <       0.78520269 Ry

     iteration #  2     ecut=    40.00 Ry     beta= 0.50
     Davidson diagonalization with overlap
     ethr =  2.45E-03,  avg # of iterations =  2.1

     total cpu time spent up to now is        3.5 secs

     total energy              =     -91.14572148 Ry
     Harris-Foulkes estimate   =     -91.17872806 Ry
     estimated scf accuracy    <       0.07203507 Ry

     iteration #  3     ecut=    40.00 Ry     beta= 0.50
     Davidson diagonalization with overlap
     ethr =  2.25E-04,  avg # of iterations =  3.3

     total cpu time spent up to now is        4.6 secs

     total energy              =     -91.15738996 Ry
     Harris-Foulkes estimate   =     -91.15746169 Ry
     estimated scf accuracy    <       0.00216535 Ry

     iteration #  4     ecut=    40.00 Ry     beta= 0.50
     Davidson diagonalization with overlap
     ethr =  6.77E-06,  avg # of iterations =  3.6

     total cpu time spent up to now is        5.7 secs

     total energy              =     -91.15759530 Ry
     Harris-Foulkes estimate   =     -91.15770280 Ry
     estimated scf accuracy    <       0.00022461 Ry

     iteration #  5     ecut=    40.00 Ry     beta= 0.50
     Davidson diagonalization with overlap
     ethr =  7.02E-07,  avg # of iterations =  2.0

     total cpu time spent up to now is        6.5 secs

     total energy              =     -91.15764103 Ry
     Harris-Foulkes estimate   =     -91.15764563 Ry
     estimated scf accuracy    <       0.00001788 Ry

     iteration #  6     ecut=    40.00 Ry     beta= 0.50
     Davidson diagonalization with overlap
     ethr =  5.59E-08,  avg # of iterations =  2.0

     total cpu time spent up to now is        7.3 secs

     total energy              =     -91.15764260 Ry
     Harris-Foulkes estimate   =     -91.15764405 Ry
     estimated scf accuracy    <       0.00000315 Ry

     iteration #  7     ecut=    40.00 Ry     beta= 0.50
     Davidson diagonalization with overlap
     ethr =  9.83E-09,  avg # of iterations =  2.0

     total cpu time spent up to now is        8.1 secs

     total energy              =     -91.15764317 Ry
     Harris-Foulkes estimate   =     -91.15764315 Ry
     estimated scf accuracy    <       0.00000004 Ry

     iteration #  8     ecut=    40.00 Ry     beta= 0.50
     Davidson diagonalization with overlap
     ethr =  1.23E-10,  avg # of iterations =  3.0

     total cpu time spent up to now is        9.1 secs

     End of self-consistent calculation

          k = 0.0000 0.0000 0.0000 (  2747 PWs)   bands (ev):

   -15.3342 -13.8763 -13.8753 -10.1707  -8.9862  -3.2466  -3.2279  -3.2268
    -2.2502  -1.5522  -1.5514  -0.9095  -0.9087   1.0394   1.2265   1.8445
     6.1067   7.1352   9.0702   9.0705

          k = 0.0001-0.0008 0.6952 (  2724 PWs)   bands (ev):

   -14.6270 -13.1832 -13.1822  -9.5647  -8.4226  -4.6780  -3.9658  -3.9647
    -2.4526  -2.4518  -2.4101  -1.2205  -0.7528  -0.7520  -0.1952   2.7030
     5.6755   8.0711  10.2078  10.2089

          k = 0.0001-0.0016 1.3905 (  2713 PWs)   bands (ev):

   -12.5453 -11.1630 -11.1619  -9.3439  -7.7614  -7.7280  -7.7270  -5.9491
    -4.8453  -3.2113  -2.3020  -2.3010  -0.0200   1.3080   1.3089   3.3145
     5.2135   6.8755   6.8765   9.0937

          k =-0.0047 0.6368-0.0004 (  2727 PWs)   bands (ev):

   -15.3183 -13.8629 -13.8608 -10.1610  -8.9776  -3.5083  -3.2245  -3.2224
    -2.2477  -1.8026  -1.7734  -0.9083  -0.9075   1.0399   1.2274   1.7013
     5.8579   8.9426  10.5586  10.8189

          k =-0.0046 0.6360 0.6949 (  2728 PWs)   bands (ev):

   -14.6120 -13.1706 -13.1686  -9.5558  -8.4146  -4.6738  -3.9619  -3.9605
    -2.6607  -2.4501  -2.4489  -1.2178  -0.9904  -0.9625  -0.1934   2.5645
     5.5062   9.8352  10.1118  10.1306

          k =-0.0045 0.6351 1.3901 (  2734 PWs)   bands (ev):

   -12.5328 -11.1525 -11.1508  -9.3350  -7.7547  -7.7209  -7.7197  -5.9435
    -4.8407  -3.2079  -2.3007  -2.2997  -0.2338   1.1224   1.1413   3.1644
     5.0906   6.6639   6.6766   9.0007

          k =-0.0048 0.6384-1.3909 (  2730 PWs)   bands (ev):

   -12.5327 -11.1524 -11.1507  -9.3351  -7.7546  -7.7210  -7.7197  -5.9435
    -4.8407  -3.2080  -2.3007  -2.2997  -0.2355   1.1213   1.1400   3.1660
     5.0894   6.6652   6.6783   9.0020

          k =-0.0047 0.6376-0.6956 (  2731 PWs)   bands (ev):

   -14.6119 -13.1705 -13.1686  -9.5558  -8.4146  -4.6739  -3.9619  -3.9606
    -2.6618  -2.4502  -2.4490  -1.2178  -0.9913  -0.9635  -0.1934   2.5639
     5.5059   9.8465  10.1125  10.1315

          k =-0.5001 0.0135 0.0000 (  2748 PWs)   bands (ev):

   -14.9672 -14.9672 -12.1006 -12.1000  -6.5121  -6.5118  -2.8149  -2.8148
    -1.8944  -1.8938  -0.1877  -0.1867   0.3620   0.3632   0.3737   0.3743
     7.6192   7.6192   8.1299   8.1307

          k =-0.5000 0.0127 0.6953 (  2721 PWs)   bands (ev):

   -14.2630 -14.2629 -11.4359 -11.4353  -6.1922  -6.1918  -4.2033  -4.2028
    -2.3008  -2.2999  -1.9878  -1.9878  -0.5175  -0.5166   1.1473   1.1479
     7.5315   7.5322   8.5534   8.5538

          k =-0.5000 0.0119 1.3905 (  2728 PWs)   bands (ev):

   -12.1926 -12.1925  -9.6805  -9.6799  -8.5788  -8.5787  -6.1798  -6.1790
    -4.1952  -4.1950  -2.2079  -2.2073   0.3318   0.3321   2.5851   2.5856
     5.7173   5.7177   8.3118   8.3124

          k =-0.5048 0.6503-0.0003 (  2732 PWs)   bands (ev):

   -14.9523 -14.9513 -12.0896 -12.0873  -6.5067  -6.5043  -3.0786  -3.0627
    -1.8929  -1.8923  -0.1860  -0.1849   0.1597   0.1948   0.3626   0.3639
     7.9252   7.9585   9.3247   9.4862

          k =-0.5047 0.6495 0.6949 (  2734 PWs)   bands (ev):

   -14.2489 -14.2480 -11.4257 -11.4235  -6.1871  -6.1854  -4.1993  -4.1987
    -2.2977  -2.2967  -2.2393  -2.2244  -0.5164  -0.5154   0.9438   0.9772
     7.4010   7.4267  10.2059  10.3618

          k =-0.5046 0.6487 1.3901 (  2721 PWs)   bands (ev):

   -12.1809 -12.1801  -9.6715  -9.6702  -8.5710  -8.5708  -6.1743  -6.1729
    -4.1918  -4.1908  -2.2058  -2.2052   0.1220   0.1340   2.4332   2.4474
     5.5378   5.5382   8.1418   8.1598

          k =-0.5049 0.6519-1.3908 (  2725 PWs)   bands (ev):

   -12.1808 -12.1800  -9.6715  -9.6701  -8.5711  -8.5708  -6.1743  -6.1731
    -4.1919  -4.1908  -2.2058  -2.2052   0.1203   0.1322   2.4332   2.4471
     5.5382   5.5387   8.1429   8.1614

          k =-0.5049 0.6511-0.6956 (  2733 PWs)   bands (ev):

   -14.2489 -14.2479 -11.4257 -11.4235  -6.1872  -6.1854  -4.1994  -4.1988
    -2.2978  -2.2967  -2.2404  -2.2254  -0.5164  -0.5155   0.9431   0.9762
     7.4013   7.4270  10.2170  10.3728

     the Fermi energy is     3.4887 ev

!    total energy              =     -91.15764319 Ry
     Harris-Foulkes estimate   =     -91.15764319 Ry
     estimated scf accuracy    <          7.0E-09 Ry

     The total energy is the sum of the following terms:

     one-electron contribution =     -76.38272258 Ry
     hartree contribution      =      50.56180408 Ry
     xc contribution           =     -27.94920160 Ry
     ewald contribution        =     -37.38829581 Ry
     smearing contrib. (-TS)   =       0.00077272 Ry

     convergence has been achieved in   8 iterations

     Forces acting on atoms (cartesian axes, Ry/au):

     atom    1 type  1   force =    -0.02121147   -0.00015730    0.00014542
     atom    2 type  1   force =     0.02101552    0.00014376    0.00004327
     atom    3 type  1   force =     0.02150651    0.00013816    0.00002396
     atom    4 type  1   force =     0.02128051    0.00015336    0.00001477
     atom    5 type  1   force =    -0.02156247   -0.00017517   -0.00003906
     atom    6 type  1   force =     0.02124924    0.00012274   -0.00007645
     atom    7 type  1   force =    -0.02114744   -0.00011750    0.00003262
     atom    8 type  1   force =    -0.02113039   -0.00010804   -0.00014453

     Total force =     0.060144     Total SCF correction =     0.000070


     Computing stress (Cartesian axis) and pressure

          total   stress  (Ry/bohr**3)                   (kbar)     P=       -4.17
  -0.00022923  -0.00000091   0.00000012          -33.72       -0.13        0.02
  -0.00000091  -0.00004307   0.00000015           -0.13       -6.34        0.02
   0.00000012   0.00000015   0.00018734            0.02        0.02       27.56


     BFGS Geometry Optimization

     number of scf cycles    =   1
     number of bfgs steps    =   0

     enthalpy new            =     -91.1575997695 Ry

     new trust radius        =       0.0289739944 bohr
     new conv_thr            =       0.0000000100 Ry

     new unit-cell volume =    637.29311 a.u.^3 (    94.43709 Ang^3 )
     density =      1.68802 g/cm^3

CELL_PARAMETERS (bohr)
  16.093709708   0.118402526  -0.001457720
   0.227493983   8.466053764   0.009977772
   0.000411705   0.002713962   4.678301375

ATOMIC_POSITIONS (crystal)
C             0.3019745596        0.2018758144        0.9231948069
C             0.3871693538        0.2018847444        0.4231757135
C             0.6371827027        0.2019526587       -0.0767604205
C             0.1371757121        0.2018726501        0.9233085955
C             0.8019619012        0.2019800223        0.9233221873
C             0.8871768312        0.2019590695        0.4233300130
C             0.5519734502        1.2019244633        0.4232225752
C             0.0519744891        0.2018945773        0.4233085291



     Writing output data file ./pp.save/
     NEW-OLD atomic charge density approx. for the potential
     extrapolated charge   31.93090, renormalised to   32.00000

     total cpu time spent up to now is        9.2 secs

     Self-consistent Calculation

     iteration #  1     ecut=    40.00 Ry     beta= 0.50
     Davidson diagonalization with overlap
     ethr =  1.00E-06,  avg # of iterations =  5.3

     total cpu time spent up to now is       11.1 secs

     total energy              =     -91.15600350 Ry
     Harris-Foulkes estimate   =     -91.29629818 Ry
     estimated scf accuracy    <       0.00143012 Ry

     iteration #  2     ecut=    40.00 Ry     beta= 0.50
     Davidson diagonalization with overlap
     ethr =  4.47E-06,  avg # of iterations =  2.2

     total cpu time spent up to now is       12.0 secs

     total energy              =     -91.15620452 Ry
     Harris-Foulkes estimate   =     -91.15630568 Ry
     estimated scf accuracy    <       0.00021030 Ry

     iteration #  3     ecut=    40.00 Ry     beta= 0.50
     Davidson diagonalization with overlap
     ethr =  6.57E-07,  avg # of iterations =  2.0

     total cpu time spent up to now is       12.8 secs

     total energy              =     -91.15622619 Ry
     Harris-Foulkes estimate   =     -91.15622821 Ry
     estimated scf accuracy    <       0.00001114 Ry

     iteration #  4     ecut=    40.00 Ry     beta= 0.50
     Davidson diagonalization with overlap
     ethr =  3.48E-08,  avg # of iterations =  2.1

     total cpu time spent up to now is       13.7 secs

     total energy              =     -91.15622833 Ry
     Harris-Foulkes estimate   =     -91.15622838 Ry
     estimated scf accuracy    <       0.00000101 Ry

     iteration #  5     ecut=    40.00 Ry     beta= 0.50
     Davidson diagonalization with overlap
     ethr =  3.15E-09,  avg # of iterations =  2.1

     total cpu time spent up to now is       14.5 secs

     total energy              =     -91.15622837 Ry
     Harris-Foulkes estimate   =     -91.15622863 Ry
     estimated scf accuracy    <       0.00000079 Ry

     iteration #  6     ecut=    40.00 Ry     beta= 0.50
     Davidson diagonalization with overlap
     ethr =  2.48E-09,  avg # of iterations =  2.0

     total cpu time spent up to now is       15.3 secs

     total energy              =     -91.15622848 Ry
     Harris-Foulkes estimate   =     -91.15622849 Ry
     estimated scf accuracy    <       0.00000002 Ry

     iteration #  7     ecut=    40.00 Ry     beta= 0.50
     Davidson diagonalization with overlap
     ethr =  7.21E-11,  avg # of iterations =  2.7

     total cpu time spent up to now is       16.3 secs

     End of self-consistent calculation

          k = 0.0000 0.0000 0.0000 (  2747 PWs)   bands (ev):

   -15.3280 -13.8570 -13.8564  -9.9532  -9.1963  -3.3158  -3.3152  -3.2376
    -2.1944  -1.5019  -1.5014  -0.7686  -0.7682   0.9288   1.3809   2.1190
     5.8431   7.1512   9.1103   9.1104

          k = 0.0001-0.0008 0.6920 (  2724 PWs)   bands (ev):

   -14.6259 -13.1689 -13.1683  -9.3431  -8.6647  -4.6086  -4.0414  -4.0408
    -2.4169  -2.3404  -2.3400  -0.9212  -0.7238  -0.7233  -0.4776   2.9665
     5.4181   8.0748  10.1922  10.1929

          k = 0.0001-0.0016 1.3840 (  2713 PWs)   bands (ev):

   -12.5628 -11.1762 -11.1756  -9.4404  -7.6897  -7.6892  -7.5272  -6.0551
    -4.5872  -3.4370  -2.2973  -2.2967  -0.0788   1.2497   1.2503   3.1539
     5.4432   6.9812   6.9818   9.2652

          k =-0.0047 0.6375-0.0004 (  2727 PWs)   bands (ev):

   -15.3119 -13.8435 -13.8416  -9.9432  -9.1881  -3.5010  -3.3125  -3.3107
    -2.1918  -1.7554  -1.7258  -0.7674  -0.7669   0.9298   1.3815   1.9702
     5.6124   8.9637  10.6376  10.9148

          k =-0.0046 0.6366 0.6916 (  2728 PWs)   bands (ev):

   -14.6108 -13.1563 -13.1545  -9.3340  -8.6572  -4.6041  -4.0375  -4.0365
    -2.6687  -2.3379  -2.3369  -0.9635  -0.9353  -0.9183  -0.4760   2.8227
     5.2577   9.8402  10.0874  10.1059

          k =-0.0046 0.6358 1.3836 (  2734 PWs)   bands (ev):

   -12.5502 -11.1657 -11.1642  -9.4314  -7.6825  -7.6815  -7.5201  -6.0496
    -4.5824  -3.4338  -2.2960  -2.2954  -0.2922   1.0655   1.0840   3.0060
     5.3159   6.7571   6.7690   9.1692

          k =-0.0048 0.6391-1.3844 (  2730 PWs)   bands (ev):

   -12.5501 -11.1656 -11.1641  -9.4315  -7.6826  -7.6815  -7.5201  -6.0496
    -4.5825  -3.4338  -2.2960  -2.2954  -0.2939   1.0644   1.0827   3.0075
     5.3146   6.7583   6.7707   9.1706

          k =-0.0048 0.6383-0.6924 (  2731 PWs)   bands (ev):

   -14.6107 -13.1562 -13.1544  -9.3340  -8.6571  -4.6042  -4.0376  -4.0367
    -2.6697  -2.3379  -2.3370  -0.9644  -0.9364  -0.9183  -0.4760   2.8221
     5.2575   9.8516  10.0881  10.1068

          k =-0.5030 0.0135 0.0000 (  2748 PWs)   bands (ev):

   -14.9579 -14.9578 -12.0590 -12.0583  -6.5630  -6.5626  -2.7966  -2.7966
    -1.8187  -1.8180  -0.3887  -0.3874   0.5010   0.5017   0.6174   0.6188
     7.6422   7.6422   8.0141   8.0151

          k =-0.5029 0.0127 0.6920 (  2721 PWs)   bands (ev):

   -14.2587 -14.2586 -11.3997 -11.3989  -6.2841  -6.2836  -4.0971  -4.0965
    -2.2599  -2.2587  -1.9865  -1.9864  -0.5291  -0.5280   1.2430   1.2437
     7.4411   7.4420   8.5657   8.5661

          k =-0.5029 0.0119 1.3840 (  2728 PWs)   bands (ev):

   -12.2080 -12.2080  -9.7459  -9.7452  -8.4791  -8.4791  -6.1004  -6.0995
    -4.1972  -4.1968  -2.2526  -2.2518   0.2746   0.2749   2.4937   2.4943
     5.8627   5.8632   8.4470   8.4476

          k =-0.5077 0.6510-0.0003 (  2732 PWs)   bands (ev):

   -14.9428 -14.9418 -12.0479 -12.0456  -6.5577  -6.5552  -3.0622  -3.0463
    -1.8171  -1.8164  -0.3869  -0.3856   0.2812   0.3177   0.6181   0.6196
     7.8299   7.8648   9.3542   9.5164

          k =-0.5076 0.6502 0.6917 (  2734 PWs)   bands (ev):

   -14.2445 -14.2435 -11.3894 -11.3871  -6.2791  -6.2774  -4.0929  -4.0923
    -2.2567  -2.2555  -2.2393  -2.2243  -0.5279  -0.5268   1.0354   1.0698
     7.3157   7.3419  10.2169  10.3721

          k =-0.5075 0.6493 1.3837 (  2721 PWs)   bands (ev):

   -12.1962 -12.1954  -9.7368  -9.7354  -8.4710  -8.4709  -6.0947  -6.0932
    -4.1938  -4.1927  -2.2505  -2.2497   0.0655   0.0773   2.3437   2.3566
     5.6744   5.6766   8.2650   8.2834

          k =-0.5078 0.6526-1.3843 (  2725 PWs)   bands (ev):

   -12.1961 -12.1953  -9.7368  -9.7355  -8.4710  -8.4710  -6.0948  -6.0934
    -4.1939  -4.1927  -2.2505  -2.2498   0.0638   0.0756   2.3437   2.3566
     5.6749   5.6767   8.2661   8.2850

          k =-0.5078 0.6518-0.6923 (  2733 PWs)   bands (ev):

   -14.2444 -14.2435 -11.3893 -11.3870  -6.2791  -6.2774  -4.0930  -4.0924
    -2.2568  -2.2555  -2.2404  -2.2253  -0.5279  -0.5268   1.0348   1.0688
     7.3160   7.3422  10.2279  10.3831

     the Fermi energy is     3.2788 ev

!    total energy              =     -91.15622848 Ry
     Harris-Foulkes estimate   =     -91.15622848 Ry
     estimated scf accuracy    <          7.4E-10 Ry

     The total energy is the sum of the following terms:

     one-electron contribution =     -76.25512246 Ry
     hartree contribution      =      50.51947937 Ry
     xc contribution           =     -27.96031619 Ry
     ewald contribution        =     -37.46183168 Ry
     smearing contrib. (-TS)   =       0.00156248 Ry

     convergence has been achieved in   7 iterations

     Forces acting on atoms (cartesian axes, Ry/au):

     atom    1 type  1   force =     0.03914117    0.00028488    0.00003009
     atom    2 type  1   force =    -0.03903782   -0.00029411    0.00012431
     atom    3 type  1   force =    -0.03952886   -0.00030427    0.00001841
     atom    4 type  1   force =    -0.03920658   -0.00027909   -0.00010286
     atom    5 type  1   force =     0.03958126    0.00026943   -0.00005758
     atom    6 type  1   force =    -0.03935205   -0.00030072   -0.00005206
     atom    7 type  1   force =     0.03919901    0.00031582    0.00002342
     atom    8 type  1   force =     0.03920387    0.00030806    0.00001627

     Total force =     0.111109     Total SCF correction =     0.000073


     Computing stress (Cartesian axis) and pressure

          total   stress  (Ry/bohr**3)                   (kbar)     P=        0.13
   0.00027267   0.00000283  -0.00000008           40.11        0.42       -0.01
   0.00000283  -0.00004508  -0.00000010            0.42       -6.63       -0.01
  -0.00000008  -0.00000010  -0.00022495           -0.01       -0.01      -33.09


     number of scf cycles    =   2
     number of bfgs steps    =   1

     enthalpy old            =     -91.1575997695 Ry
     enthalpy new            =     -91.1561851585 Ry

     CASE: enthalpy_new > enthalpy_old

     new trust radius        =       0.0113681897 bohr
     new conv_thr            =       0.0000000100 Ry

     new unit-cell volume =    638.13574 a.u.^3 (    94.56196 Ang^3 )
     density =      1.68579 g/cm^3

CELL_PARAMETERS (bohr)
  16.150262593   0.118705721  -0.001483488
   0.228411855   8.471628119   0.009930372
   0.000404571   0.002705453   4.665014094

ATOMIC_POSITIONS (crystal)
C             0.3027732335        0.2018759275        0.9231760310
C             0.3863780463        0.2018855097        0.4231697934
C             0.6363728985        0.2019540857       -0.0767638210
C             0.1363744347        0.2018728633        0.9233064041
C             0.8027737753        0.2019812276        0.9233275584
C             0.8863767002        0.2019614650        0.4233397566
C             0.5527697529        1.2019217431        0.4232185678
C             0.0527701586        0.2018911781        0.4233277097



     Writing output data file ./pp.save/
     NEW-OLD atomic charge density approx. for the potential
     extrapolated charge   32.04225, renormalised to   32.00000

     total cpu time spent up to now is       16.4 secs

     Self-consistent Calculation

     iteration #  1     ecut=    40.00 Ry     beta= 0.50
     Davidson diagonalization with overlap
     ethr =  1.00E-06,  avg # of iterations =  4.8

     total cpu time spent up to now is       18.3 secs

     total energy              =     -91.15859298 Ry
     Harris-Foulkes estimate   =     -91.07346923 Ry
     estimated scf accuracy    <       0.00052875 Ry

     iteration #  2     ecut=    40.00 Ry     beta= 0.50
     Davidson diagonalization with overlap
     ethr =  1.65E-06,  avg # of iterations =  2.3

     total cpu time spent up to now is       19.5 secs

     total energy              =     -91.15866976 Ry
     Harris-Foulkes estimate   =     -91.15870731 Ry
     estimated scf accuracy    <       0.00007877 Ry

     iteration #  3     ecut=    40.00 Ry     beta= 0.50
     Davidson diagonalization with overlap
     ethr =  2.46E-07,  avg # of iterations =  2.0

     total cpu time spent up to now is       20.4 secs

     total energy              =     -91.15867759 Ry
     Harris-Foulkes estimate   =     -91.15867846 Ry
     estimated scf accuracy    <       0.00000437 Ry

     iteration #  4     ecut=    40.00 Ry     beta= 0.50
     Davidson diagonalization with overlap
     ethr =  1.37E-08,  avg # of iterations =  2.2

     total cpu time spent up to now is       21.5 secs

     total energy              =     -91.15867840 Ry
     Harris-Foulkes estimate   =     -91.15867854 Ry
     estimated scf accuracy    <       0.00000054 Ry

     iteration #  5     ecut=    40.00 Ry     beta= 0.50
     Davidson diagonalization with overlap
     ethr =  1.69E-09,  avg # of iterations =  2.2

     total cpu time spent up to now is       22.6 secs

     total energy              =     -91.15867848 Ry
     Harris-Foulkes estimate   =     -91.15867860 Ry
     estimated scf accuracy    <       0.00000047 Ry

     iteration #  6     ecut=    40.00 Ry     beta= 0.50
     Davidson diagonalization with overlap
     ethr =  1.48E-09,  avg # of iterations =  2.0

     total cpu time spent up to now is       23.6 secs

     total energy              =     -91.15867854 Ry
     Harris-Foulkes estimate   =     -91.15867854 Ry
     estimated scf accuracy    <       0.00000001 Ry

     iteration #  7     ecut=    40.00 Ry     beta= 0.50
     Davidson diagonalization with overlap
     ethr =  3.91E-11,  avg # of iterations =  3.0

     total cpu time spent up to now is       24.9 secs

     End of self-consistent calculation

          k = 0.0000 0.0000 0.0000 (  2747 PWs)   bands (ev):

   -15.3309 -13.8673 -13.8669 -10.0864  -9.0663  -3.2613  -3.2609  -3.2421
    -2.2265  -1.5311  -1.5308  -0.8524  -0.8521   1.1099   1.1724   1.9512
     6.0044   7.1414   9.0861   9.0862

          k = 0.0001-0.0008 0.6940 (  2724 PWs)   bands (ev):

   -14.6255 -13.1760 -13.1756  -9.4788  -8.5152  -4.6499  -3.9923  -3.9918
    -2.4118  -2.4104  -2.4101  -1.1039  -0.7400  -0.7396  -0.3056   2.8053
     5.5756   8.0726  10.2004  10.2008

          k = 0.0001-0.0016 1.3879 (  2713 PWs)   bands (ev):

   -12.5506 -11.1655 -11.1651  -9.3780  -7.7119  -7.7116  -7.6705  -5.9921
    -4.7449  -3.2995  -2.3018  -2.3015  -0.0418   1.2870   1.2874   3.2528
     5.3025   6.9160   6.9165   9.1597

          k =-0.0047 0.6370-0.0004 (  2727 PWs)   bands (ev):

   -15.3149 -13.8540 -13.8522 -10.0766  -9.0579  -3.5045  -3.2581  -3.2563
    -2.2239  -1.7830  -1.7536  -0.8513  -0.8509   1.1108   1.1729   1.8058
     5.7628   8.9511  10.5900  10.8564

          k =-0.0046 0.6362 0.6936 (  2728 PWs)   bands (ev):

   -14.6105 -13.1635 -13.1618  -9.4698  -8.5075  -4.6455  -3.9884  -3.9875
    -2.6629  -2.4080  -2.4070  -1.1011  -0.9786  -0.9506  -0.3039   2.6648
     5.4098   9.8377  10.1017  10.1204

          k =-0.0045 0.6354 1.3876 (  2734 PWs)   bands (ev):

   -12.5381 -11.1552 -11.1537  -9.3690  -7.7049  -7.7040  -7.6637  -5.9866
    -4.7403  -3.2962  -2.3006  -2.3002  -0.2555   1.1017   1.1204   3.1036
     5.1779   6.6995   6.7119   9.0655

          k =-0.0048 0.6387-1.3883 (  2730 PWs)   bands (ev):

   -12.5380 -11.1551 -11.1536  -9.3691  -7.7050  -7.7040  -7.6636  -5.9866
    -4.7403  -3.2963  -2.3006  -2.3002  -0.2573   1.1006   1.1191   3.1051
     5.1767   6.7007   6.7136   9.0669

          k =-0.0048 0.6378-0.6943 (  2731 PWs)   bands (ev):

   -14.6104 -13.1634 -13.1617  -9.4698  -8.5074  -4.6456  -3.9884  -3.9876
    -2.6639  -2.4080  -2.4071  -1.1011  -0.9795  -0.9516  -0.3039   2.6642
     5.4095   9.8490  10.1025  10.1213

          k =-0.5012 0.0135 0.0000 (  2748 PWs)   bands (ev):

   -14.9626 -14.9626 -12.0820 -12.0819  -6.5325  -6.5324  -2.8067  -2.8066
    -1.8626  -1.8625  -0.2649  -0.2648   0.4253   0.4254   0.4633   0.4635
     7.6282   7.6283   8.0836   8.0837

          k =-0.5012 0.0127 0.6940 (  2721 PWs)   bands (ev):

   -14.2602 -14.2602 -11.4190 -11.4189  -6.2289  -6.2288  -4.1606  -4.1605
    -2.2763  -2.2761  -1.9862  -1.9862  -0.5291  -0.5290   1.1869   1.1871
     7.4946   7.4947   8.5583   8.5587

          k =-0.5011 0.0119 1.3880 (  2728 PWs)   bands (ev):

   -12.1969 -12.1969  -9.7008  -9.7008  -8.5412  -8.5411  -6.1459  -6.1457
    -4.1980  -4.1979  -2.2282  -2.2282   0.3106   0.3109   2.5518   2.5520
     5.7724   5.7726   8.3640   8.3643

          k =-0.5059 0.6505-0.0003 (  2732 PWs)   bands (ev):

   -14.9476 -14.9466 -12.0712 -12.0690  -6.5272  -6.5248  -3.0712  -3.0553
    -1.8611  -1.8610  -0.2633  -0.2628   0.2086   0.2443   0.4638   0.4643
     7.8869   7.9208   9.3367   9.4985

          k =-0.5058 0.6497 0.6936 (  2734 PWs)   bands (ev):

   -14.2461 -14.2452 -11.4090 -11.4069  -6.2240  -6.2223  -4.1567  -4.1564
    -2.2732  -2.2728  -2.2383  -2.2233  -0.5280  -0.5279   0.9815   1.0153
     7.3660   7.3920  10.2109  10.3665

          k =-0.5058 0.6489 1.3876 (  2721 PWs)   bands (ev):

   -12.1852 -12.1845  -9.6920  -9.6908  -8.5333  -8.5331  -6.1405  -6.1393
    -4.1947  -4.1937  -2.2262  -2.2260   0.1010   0.1130   2.4004   2.4141
     5.5897   5.5904   8.1893   8.2075

          k =-0.5061 0.6522-1.3883 (  2725 PWs)   bands (ev):

   -12.1851 -12.1843  -9.6920  -9.6908  -8.5333  -8.5332  -6.1405  -6.1396
    -4.1948  -4.1937  -2.2262  -2.2261   0.0994   0.1112   2.4004   2.4139
     5.5902   5.5908   8.1904   8.2091

          k =-0.5060 0.6514-0.6943 (  2733 PWs)   bands (ev):

   -14.2461 -14.2451 -11.4090 -11.4068  -6.2240  -6.2224  -4.1567  -4.1564
    -2.2733  -2.2728  -2.2393  -2.2244  -0.5280  -0.5279   0.9808   1.0143
     7.3663   7.3922  10.2219  10.3776

     the Fermi energy is     3.4193 ev

!    total energy              =     -91.15867854 Ry
     Harris-Foulkes estimate   =     -91.15867854 Ry
     estimated scf accuracy    <          4.4E-10 Ry

     The total energy is the sum of the following terms:

     one-electron contribution =     -76.32337626 Ry
     hartree contribution      =      50.54066258 Ry
     xc contribution           =     -27.95259862 Ry
     ewald contribution        =     -37.42427177 Ry
     smearing contrib. (-TS)   =       0.00090553 Ry

     convergence has been achieved in   7 iterations

     Forces acting on atoms (cartesian axes, Ry/au):

     atom    1 type  1   force =     0.00085189    0.00000458    0.00009888
     atom    2 type  1   force =    -0.00094153   -0.00001621    0.00007662
     atom    3 type  1   force =    -0.00080999   -0.00002369    0.00002196
     atom    4 type  1   force =    -0.00083881   -0.00000492   -0.00003418
     atom    5 type  1   force =     0.00079626   -0.00001255   -0.00004678
     atom    6 type  1   force =    -0.00091711   -0.00003187   -0.00006681
     atom    7 type  1   force =     0.00092654    0.00004077    0.00002903
     atom    8 type  1   force =     0.00093275    0.00004388   -0.00007871

     Total force =     0.002492     Total SCF correction =     0.000056


     Computing stress (Cartesian axis) and pressure

          total   stress  (Ry/bohr**3)                   (kbar)     P=       -3.27
  -0.00005690   0.00000041   0.00000004           -8.37        0.06        0.01
   0.00000041  -0.00004377   0.00000005            0.06       -6.44        0.01
   0.00000004   0.00000005   0.00003402            0.01        0.01        5.01


     number of scf cycles    =   3
     number of bfgs steps    =   1

     enthalpy old            =     -91.1575997695 Ry
     enthalpy new            =     -91.1586351592 Ry

     CASE: enthalpy_new < enthalpy_old

     new trust radius        =       0.0074288531 bohr
     new conv_thr            =            1.0E-10 Ry

     new unit-cell volume =    637.02457 a.u.^3 (    94.39730 Ang^3 )
     density =      1.68873 g/cm^3

CELL_PARAMETERS (bohr)
  16.126517182   0.118745576  -0.001465912
   0.228167295   8.462004427   0.009951048
   0.000409387   0.002708885   4.669053841

ATOMIC_POSITIONS (crystal)
C             0.3028313172        0.2018757161        0.9231980808
C             0.3863142695        0.2018843679        0.4231868841
C             0.6363174837        0.2019519143       -0.0767589379
C             0.1363171784        0.2018730190        0.9232987332
C             0.8028283817        0.2019789802        0.9233171416
C             0.8863144780        0.2019583982        0.4233248451
C             0.5528325479        1.2019258940        0.4232250519
C             0.0528333437        0.2018957103        0.4233102011



     Writing output data file ./pp.save/
     NEW-OLD atomic charge density approx. for the potential
     extrapolated charge   31.94418, renormalised to   32.00000

     total cpu time spent up to now is       25.0 secs

     Self-consistent Calculation

     iteration #  1     ecut=    40.00 Ry     beta= 0.50
     Davidson diagonalization with overlap
     ethr =  1.00E-06,  avg # of iterations =  2.6

     total cpu time spent up to now is       26.3 secs

     total energy              =     -91.15862507 Ry
     Harris-Foulkes estimate   =     -91.27120598 Ry
     estimated scf accuracy    <       0.00006274 Ry

     iteration #  2     ecut=    40.00 Ry     beta= 0.50
     Davidson diagonalization with overlap
     ethr =  1.96E-07,  avg # of iterations =  3.4

     total cpu time spent up to now is       28.0 secs

     total energy              =     -91.15874827 Ry
     Harris-Foulkes estimate   =     -91.15876095 Ry
     estimated scf accuracy    <       0.00003649 Ry

     iteration #  3     ecut=    40.00 Ry     beta= 0.50
     Davidson diagonalization with overlap
     ethr =  1.14E-07,  avg # of iterations =  1.0

     total cpu time spent up to now is       28.8 secs

     total energy              =     -91.15874171 Ry
     Harris-Foulkes estimate   =     -91.15874965 Ry
     estimated scf accuracy    <       0.00001209 Ry

     iteration #  4     ecut=    40.00 Ry     beta= 0.50
     Davidson diagonalization with overlap
     ethr =  3.78E-08,  avg # of iterations =  2.0

     total cpu time spent up to now is       30.1 secs

     total energy              =     -91.15874435 Ry
     Harris-Foulkes estimate   =     -91.15874440 Ry
     estimated scf accuracy    <       0.00000027 Ry

     iteration #  5     ecut=    40.00 Ry     beta= 0.50
     Davidson diagonalization with overlap
     ethr =  8.51E-10,  avg # of iterations =  2.2

     total cpu time spent up to now is       31.4 secs

     total energy              =     -91.15874432 Ry
     Harris-Foulkes estimate   =     -91.15874438 Ry
     estimated scf accuracy    <       0.00000015 Ry

     iteration #  6     ecut=    40.00 Ry     beta= 0.50
     Davidson diagonalization with overlap
     ethr =  4.78E-10,  avg # of iterations =  1.6

     total cpu time spent up to now is       32.5 secs

     total energy              =     -91.15874430 Ry
     Harris-Foulkes estimate   =     -91.15874432 Ry
     estimated scf accuracy    <       0.00000004 Ry

     iteration #  7     ecut=    40.00 Ry     beta= 0.50
     Davidson diagonalization with overlap
     ethr =  1.16E-10,  avg # of iterations =  2.0

     total cpu time spent up to now is       33.9 secs

     total energy              =     -91.15874431 Ry
     Harris-Foulkes estimate   =     -91.15874431 Ry
     estimated scf accuracy    <          8.0E-09 Ry

     iteration #  8     ecut=    40.00 Ry     beta= 0.50
     Davidson diagonalization with overlap
     ethr =  2.50E-11,  avg # of iterations =  2.0

     total cpu time spent up to now is       35.2 secs

     total energy              =     -91.15874431 Ry
     Harris-Foulkes estimate   =     -91.15874431 Ry
     estimated scf accuracy    <          5.2E-10 Ry

     iteration #  9     ecut=    40.00 Ry     beta= 0.50
     Davidson diagonalization with overlap
     ethr =  1.63E-12,  avg # of iterations =  2.1

     total cpu time spent up to now is       36.7 secs

     End of self-consistent calculation

          k = 0.0000 0.0000 0.0000 (  2747 PWs)   bands (ev):

   -15.3229 -13.8547 -13.8544 -10.0535  -9.0531  -3.2315  -3.2261  -3.2258
    -2.2454  -1.5154  -1.5151  -0.8659  -0.8657   1.1455   1.1682   1.9791
     6.0298   7.1561   9.1065   9.1066

          k = 0.0001-0.0008 0.6934 (  2724 PWs)   bands (ev):

   -14.6189 -13.1648 -13.1645  -9.4476  -8.5044  -4.6602  -3.9874  -3.9871
    -2.4024  -2.3885  -2.3883  -1.0987  -0.7258  -0.7255  -0.2816   2.8320
     5.5928   8.0854  10.0349  10.0357

          k = 0.0001-0.0016 1.3867 (  2713 PWs)   bands (ev):

   -12.5483 -11.1589 -11.1586  -9.3821  -7.7094  -7.7091  -7.6445  -5.9794
    -4.7277  -3.2852  -2.2723  -2.2720  -0.0357   1.2967   1.2970   3.2582
     5.3256   6.9279   6.9283   9.1790

          k =-0.0047 0.6378-0.0004 (  2727 PWs)   bands (ev):

   -15.3067 -13.8413 -13.8394 -10.0435  -9.0446  -3.4959  -3.2229  -3.2212
    -2.2429  -1.7692  -1.7396  -0.8647  -0.8644   1.1464   1.1688   1.8327
     5.7873   8.9718  10.6168  10.8857

          k =-0.0046 0.6369 0.6930 (  2728 PWs)   bands (ev):

   -14.6037 -13.1522 -13.1505  -9.4385  -8.4966  -4.6558  -3.9835  -3.9827
    -2.6555  -2.3861  -2.3851  -1.0959  -0.9663  -0.9380  -0.2798   2.6904
     5.4263   9.8564  10.1196  10.1384

          k =-0.0046 0.6361 1.3864 (  2734 PWs)   bands (ev):

   -12.5357 -11.1484 -11.1470  -9.3730  -7.7023  -7.7014  -7.6376  -5.9738
    -4.7230  -3.2819  -2.2710  -2.2707  -0.2512   1.1098   1.1287   3.1074
     5.2001   6.7090   6.7215   9.0839

          k =-0.0048 0.6394-1.3871 (  2730 PWs)   bands (ev):

   -12.5355 -11.1483 -11.1469  -9.3731  -7.7024  -7.7014  -7.6375  -5.9738
    -4.7231  -3.2819  -2.2710  -2.2707  -0.2530   1.1087   1.1274   3.1090
     5.1988   6.7102   6.7232   9.0853

          k =-0.0048 0.6386-0.6937 (  2731 PWs)   bands (ev):

   -14.6037 -13.1521 -13.1504  -9.4385  -8.4966  -4.6560  -3.9836  -3.9828
    -2.6566  -2.3861  -2.3852  -1.0959  -0.9672  -0.9391  -0.2798   2.6898
     5.4260   9.8677  10.1204  10.1393

          k =-0.5020 0.0135 0.0000 (  2748 PWs)   bands (ev):

   -14.9535 -14.9534 -12.0635 -12.0634  -6.5042  -6.5041  -2.7948  -2.7948
    -1.8802  -1.8801  -0.2278  -0.2276   0.4471   0.4472   0.4556   0.4558
     7.6445   7.6445   8.1140   8.1141

          k =-0.5019 0.0127 0.6934 (  2721 PWs)   bands (ev):

   -14.2525 -14.2524 -11.4020 -11.4019  -6.2079  -6.2079  -4.1650  -4.1649
    -2.2735  -2.2734  -1.9757  -1.9756  -0.5011  -0.5009   1.2067   1.2070
     7.5154   7.5155   8.5726   8.5730

          k =-0.5018 0.0119 1.3868 (  2728 PWs)   bands (ev):

   -12.1935 -12.1935  -9.6943  -9.6942  -8.5358  -8.5358  -6.1373  -6.1372
    -4.1736  -4.1735  -2.2040  -2.2039   0.3179   0.3181   2.5618   2.5620
     5.7876   5.7877   8.3796   8.3799

          k =-0.5067 0.6513-0.0003 (  2732 PWs)   bands (ev):

   -14.9383 -14.9373 -12.0526 -12.0503  -6.4989  -6.4964  -3.0613  -3.0453
    -1.8787  -1.8785  -0.2262  -0.2256   0.2288   0.2648   0.4561   0.4566
     7.9170   7.9512   9.3584   9.5208

          k =-0.5066 0.6505 0.6930 (  2734 PWs)   bands (ev):

   -14.2382 -14.2372 -11.3919 -11.3897  -6.2030  -6.2013  -4.1610  -4.1607
    -2.2704  -2.2700  -2.2297  -2.2146  -0.4999  -0.4998   0.9998   1.0339
     7.3861   7.4122  10.2303  10.3865

          k =-0.5065 0.6497 1.3864 (  2721 PWs)   bands (ev):

   -12.1816 -12.1808  -9.6854  -9.6842  -8.5278  -8.5277  -6.1319  -6.1307
    -4.1703  -4.1693  -2.2020  -2.2018   0.1065   0.1185   2.4091   2.4228
     5.6027   5.6036   8.2031   8.2215

          k =-0.5068 0.6529-1.3871 (  2725 PWs)   bands (ev):

   -12.1815 -12.1807  -9.6853  -9.6842  -8.5279  -8.5278  -6.1319  -6.1309
    -4.1704  -4.1693  -2.2020  -2.2018   0.1048   0.1167   2.4092   2.4227
     5.6032   5.6039   8.2042   8.2231

          k =-0.5067 0.6521-0.6937 (  2733 PWs)   bands (ev):

   -14.2381 -14.2372 -11.3918 -11.3897  -6.2030  -6.2014  -4.1611  -4.1607
    -2.2705  -2.2700  -2.2307  -2.2156  -0.4999  -0.4998   0.9991   1.0329
     7.3864   7.4125  10.2414  10.3976

     the Fermi energy is     3.4217 ev

!    total energy              =     -91.15874431 Ry
     Harris-Foulkes estimate   =     -91.15874431 Ry
     estimated scf accuracy    <          6.4E-11 Ry

     The total energy is the sum of the following terms:

     one-electron contribution =     -76.12445610 Ry
     hartree contribution      =      50.45858178 Ry
     xc contribution           =     -27.95779675 Ry
     ewald contribution        =     -37.53601958 Ry
     smearing contrib. (-TS)   =       0.00094634 Ry

     convergence has been achieved in   9 iterations

     Forces acting on atoms (cartesian axes, Ry/au):

     atom    1 type  1   force =     0.00010779   -0.00000287    0.00005061
     atom    2 type  1   force =    -0.00003804   -0.00000215    0.00008627
     atom    3 type  1   force =    -0.00016232   -0.00000805    0.00001128
     atom    4 type  1   force =    -0.00010948    0.00000799   -0.00004745
     atom    5 type  1   force =     0.00016421   -0.00002008   -0.00004813
     atom    6 type  1   force =    -0.00008262   -0.00001669   -0.00004957
     atom    7 type  1   force =     0.00006438    0.00001865    0.00003228
     atom    8 type  1   force =     0.00005606    0.00002320   -0.00003528

     Total force =     0.000337     Total SCF correction =     0.000004


     Computing stress (Cartesian axis) and pressure

          total   stress  (Ry/bohr**3)                   (kbar)     P=       -1.47
   0.00001341   0.00000096  -0.00000000            1.97        0.14       -0.00
   0.00000096  -0.00004419   0.00000003            0.14       -6.50        0.01
  -0.00000000   0.00000003   0.00000086           -0.00        0.01        0.13


     number of scf cycles    =   4
     number of bfgs steps    =   2

     enthalpy old            =     -91.1586351592 Ry
     enthalpy new            =     -91.1587010048 Ry

     CASE: enthalpy_new < enthalpy_old

     new trust radius        =       0.0092350751 bohr
     new conv_thr            =            1.0E-10 Ry

     new unit-cell volume =    635.97523 a.u.^3 (    94.24180 Ang^3 )
     density =      1.69152 g/cm^3

CELL_PARAMETERS (bohr)
  16.122708989   0.119071109  -0.001460561
   0.228396874   8.446533514   0.009969365
   0.000411043   0.002711698   4.671009059

ATOMIC_POSITIONS (crystal)
C             0.3028493577        0.2018750943        0.9232206456
C             0.3862991181        0.2018836189        0.4232166918
C             0.6362965911        0.2019500242       -0.0767539356
C             0.1362993748        0.2018743562        0.9232831158
C             0.8028491174        0.2019749780        0.9233001349
C             0.8862967510        0.2019548005        0.4233055724
C             0.5528491833        1.2019302367        0.4232362674
C             0.0528495066        0.2019008912        0.4232935076



     Writing output data file ./pp.save/
     NEW-OLD atomic charge density approx. for the potential
     extrapolated charge   31.94720, renormalised to   32.00000

     total cpu time spent up to now is       36.8 secs

     Self-consistent Calculation

     iteration #  1     ecut=    40.00 Ry     beta= 0.50
     Davidson diagonalization with overlap
     ethr =  1.00E-06,  avg # of iterations =  2.2

     total cpu time spent up to now is       38.3 secs

     total energy              =     -91.15869180 Ry
     Harris-Foulkes estimate   =     -91.26454052 Ry
     estimated scf accuracy    <       0.00004421 Ry

     iteration #  2     ecut=    40.00 Ry     beta= 0.50
     Davidson diagonalization with overlap
     ethr =  1.38E-07,  avg # of iterations =  3.1

     total cpu time spent up to now is       40.2 secs

     total energy              =     -91.15879542 Ry
     Harris-Foulkes estimate   =     -91.15880694 Ry
     estimated scf accuracy    <       0.00003515 Ry

     iteration #  3     ecut=    40.00 Ry     beta= 0.50
     Davidson diagonalization with overlap
     ethr =  1.10E-07,  avg # of iterations =  1.0

     total cpu time spent up to now is       41.3 secs

     total energy              =     -91.15878753 Ry
     Harris-Foulkes estimate   =     -91.15879651 Ry
     estimated scf accuracy    <       0.00001295 Ry

     iteration #  4     ecut=    40.00 Ry     beta= 0.50
     Davidson diagonalization with overlap
     ethr =  4.05E-08,  avg # of iterations =  2.0

     total cpu time spent up to now is       42.9 secs

     total energy              =     -91.15879067 Ry
     Harris-Foulkes estimate   =     -91.15879124 Ry
     estimated scf accuracy    <       0.00000115 Ry

     iteration #  5     ecut=    40.00 Ry     beta= 0.50
     Davidson diagonalization with overlap
     ethr =  3.59E-09,  avg # of iterations =  2.0

     total cpu time spent up to now is       45.6 secs

     total energy              =     -91.15879072 Ry
     Harris-Foulkes estimate   =     -91.15879076 Ry
     estimated scf accuracy    <       0.00000012 Ry

     iteration #  6     ecut=    40.00 Ry     beta= 0.50
     Davidson diagonalization with overlap
     ethr =  3.82E-10,  avg # of iterations =  1.1

     total cpu time spent up to now is       46.8 secs

     total energy              =     -91.15879070 Ry
     Harris-Foulkes estimate   =     -91.15879072 Ry
     estimated scf accuracy    <       0.00000003 Ry

     iteration #  7     ecut=    40.00 Ry     beta= 0.50
     Davidson diagonalization with overlap
     ethr =  9.72E-11,  avg # of iterations =  2.0

     total cpu time spent up to now is       48.5 secs

     total energy              =     -91.15879071 Ry
     Harris-Foulkes estimate   =     -91.15879071 Ry
     estimated scf accuracy    <          3.0E-09 Ry

     iteration #  8     ecut=    40.00 Ry     beta= 0.50
     Davidson diagonalization with overlap
     ethr =  9.23E-12,  avg # of iterations =  2.0

     total cpu time spent up to now is       50.3 secs

     End of self-consistent calculation

          k = 0.0000 0.0000 0.0000 (  2747 PWs)   bands (ev):

   -15.3072 -13.8380 -13.8380 -10.0332  -9.0365  -3.2136  -3.2057  -3.2057
    -2.2400  -1.4969  -1.4969  -0.8595  -0.8595   1.1649   1.1760   1.9984
     6.0479   7.1749   9.1259   9.1259

          k = 0.0001-0.0008 0.6931 (  2724 PWs)   bands (ev):

   -14.6038 -13.1487 -13.1487  -9.4279  -8.4891  -4.6516  -3.9757  -3.9757
    -2.3853  -2.3713  -2.3713  -1.0879  -0.7082  -0.7080  -0.2646   2.8505
     5.6080   8.1031  10.0532  10.0540

          k = 0.0001-0.0016 1.3862 (  2713 PWs)   bands (ev):

   -12.5351 -11.1448 -11.1448  -9.3719  -7.6969  -7.6969  -7.6266  -5.9629
    -4.7128  -3.2697  -2.2530  -2.2529  -0.0207   1.3117   1.3120   3.2710
     5.3420   6.9412   6.9416   9.1921

          k =-0.0047 0.6389-0.0004 (  2727 PWs)   bands (ev):

   -15.2907 -13.8245 -13.8226 -10.0230  -9.0279  -3.4815  -3.2026  -3.2008
    -2.2374  -1.7542  -1.7242  -0.8583  -0.8582   1.1658   1.1765   1.8498
     5.8027   9.0005  10.6432  10.9128

          k =-0.0046 0.6381 0.6927 (  2728 PWs)   bands (ev):

   -14.5883 -13.1360 -13.1343  -9.4186  -8.4811  -4.6471  -3.9719  -3.9711
    -2.6418  -2.3689  -2.3680  -1.0850  -0.9520  -0.9234  -0.2629   2.7069
     5.4394   9.8836  10.1306  10.1497

          k =-0.0046 0.6373 1.3858 (  2734 PWs)   bands (ev):

   -12.5222 -11.1343 -11.1328  -9.3626  -7.6898  -7.6889  -7.6195  -5.9572
    -4.7079  -3.2663  -2.2517  -2.2515  -0.2393   1.1221   1.1413   3.1178
     5.2145   6.7193   6.7320   9.0955

          k =-0.0049 0.6406-1.3865 (  2730 PWs)   bands (ev):

   -12.5220 -11.1342 -11.1328  -9.3627  -7.6899  -7.6889  -7.6195  -5.9572
    -4.7080  -3.2663  -2.2517  -2.2515  -0.2411   1.1210   1.1399   3.1194
     5.2132   6.7205   6.7337   9.0969

          k =-0.0048 0.6397-0.6935 (  2731 PWs)   bands (ev):

   -14.5883 -13.1359 -13.1342  -9.4186  -8.4811  -4.6472  -3.9719  -3.9712
    -2.6429  -2.3689  -2.3681  -1.0850  -0.9529  -0.9244  -0.2629   2.7062
     5.4392   9.8950  10.1314  10.1506

          k =-0.5021 0.0136 0.0000 (  2748 PWs)   bands (ev):

   -14.9375 -14.9375 -12.0459 -12.0458  -6.4849  -6.4849  -2.7768  -2.7767
    -1.8745  -1.8744  -0.2077  -0.2075   0.4628   0.4630   0.4660   0.4661
     7.6634   7.6634   8.1317   8.1319

          k =-0.5020 0.0128 0.6931 (  2721 PWs)   bands (ev):

   -14.2371 -14.2371 -11.3850 -11.3849  -6.1912  -6.1912  -4.1547  -4.1546
    -2.2629  -2.2627  -1.9584  -1.9584  -0.4830  -0.4829   1.2247   1.2249
     7.5301   7.5303   8.5905   8.5909

          k =-0.5020 0.0119 1.3862 (  2728 PWs)   bands (ev):

   -12.1800 -12.1800  -9.6813  -9.6812  -8.5222  -8.5222  -6.1239  -6.1238
    -4.1553  -4.1552  -2.1864  -2.1863   0.3329   0.3331   2.5760   2.5763
     5.8020   5.8022   8.3927   8.3931

          k =-0.5068 0.6525-0.0003 (  2732 PWs)   bands (ev):

   -14.9221 -14.9210 -12.0347 -12.0324  -6.4795  -6.4770  -3.0468  -3.0306
    -1.8730  -1.8728  -0.2061  -0.2055   0.2447   0.2812   0.4634   0.4639
     7.9326   7.9673   9.3865   9.5499

          k =-0.5067 0.6517 0.6927 (  2734 PWs)   bands (ev):

   -14.2226 -14.2216 -11.3747 -11.3725  -6.1862  -6.1845  -4.1506  -4.1502
    -2.2597  -2.2593  -2.2159  -2.2006  -0.4819  -0.4817   1.0149   1.0495
     7.3990   7.4255  10.2567  10.4138

          k =-0.5067 0.6509 1.3858 (  2721 PWs)   bands (ev):

   -12.1679 -12.1671  -9.6722  -9.6709  -8.5140  -8.5139  -6.1183  -6.1171
    -4.1519  -4.1508  -2.1843  -2.1841   0.1185   0.1307   2.4211   2.4349
     5.6146   5.6155   8.2138   8.2325

          k =-0.5069 0.6541-1.3865 (  2725 PWs)   bands (ev):

   -12.1678 -12.1670  -9.6721  -9.6709  -8.5141  -8.5139  -6.1184  -6.1173
    -4.1519  -4.1509  -2.1843  -2.1841   0.1167   0.1289   2.4211   2.4348
     5.6150   5.6158   8.2149   8.2341

          k =-0.5069 0.6533-0.6934 (  2733 PWs)   bands (ev):

   -14.2226 -14.2216 -11.3746 -11.3724  -6.1862  -6.1845  -4.1507  -4.1503
    -2.2598  -2.2592  -2.2170  -2.2016  -0.4819  -0.4817   1.0142   1.0484
     7.3994   7.4258  10.2679  10.4249

     the Fermi energy is     3.4328 ev

!    total energy              =     -91.15879071 Ry
     Harris-Foulkes estimate   =     -91.15879071 Ry
     estimated scf accuracy    <          6.3E-11 Ry

     The total energy is the sum of the following terms:

     one-electron contribution =     -75.70455219 Ry
     hartree contribution      =      50.26508652 Ry
     xc contribution           =     -27.95631428 Ry
     ewald contribution        =     -37.76397173 Ry
     smearing contrib. (-TS)   =       0.00096098 Ry

     convergence has been achieved in   8 iterations

     Forces acting on atoms (cartesian axes, Ry/au):

     atom    1 type  1   force =    -0.00013627   -0.00000325    0.00004400
     atom    2 type  1   force =     0.00014545    0.00000511    0.00003783
     atom    3 type  1   force =     0.00019188    0.00000277    0.00001397
     atom    4 type  1   force =     0.00014199    0.00001543   -0.00001592
     atom    5 type  1   force =    -0.00019711   -0.00002231   -0.00003345
     atom    6 type  1   force =     0.00018438   -0.00000730   -0.00003559
     atom    7 type  1   force =    -0.00016947    0.00000190    0.00002247
     atom    8 type  1   force =    -0.00016085    0.00000764   -0.00003332

     Total force =     0.000483     Total SCF correction =     0.000002


     Computing stress (Cartesian axis) and pressure

          total   stress  (Ry/bohr**3)                   (kbar)     P=       -2.06
   0.00002188   0.00000104  -0.00000002            3.22        0.15       -0.00
   0.00000104  -0.00004426   0.00000002            0.15       -6.51        0.00
  -0.00000002   0.00000002  -0.00001954           -0.00        0.00       -2.87


     number of scf cycles    =   5
     number of bfgs steps    =   3

     enthalpy old            =     -91.1587010048 Ry
     enthalpy new            =     -91.1587474761 Ry

     CASE: enthalpy_new < enthalpy_old


     WARNING: bfgs curvature condition failed, Theta= 0.935
     new trust radius        =       0.0101688200 bohr
     new conv_thr            =            1.0E-10 Ry

     new unit-cell volume =    634.69827 a.u.^3 (    94.05258 Ang^3 )
     density =      1.69492 g/cm^3

CELL_PARAMETERS (bohr)
  16.119836932   0.119444489  -0.001457766
   0.228675956   8.429515873   0.009985433
   0.000411899   0.002714072   4.671879577

ATOMIC_POSITIONS (crystal)
C             0.3028603194        0.2018745132        0.9232448594
C             0.3862889259        0.2018831851        0.4232433212
C             0.6362865887        0.2019484841       -0.0767480433
C             0.1362889560        0.2018761895        0.9232699860
C             0.8028586593        0.2019706151        0.9232832849
C             0.8862868326        0.2019513337        0.4232860598
C             0.5528591428        1.2019340170        0.4232473501
C             0.0528595752        0.2019056623        0.4232751819



     Writing output data file ./pp.save/
     NEW-OLD atomic charge density approx. for the potential
     extrapolated charge   31.93562, renormalised to   32.00000

     total cpu time spent up to now is       50.4 secs

     Self-consistent Calculation

     iteration #  1     ecut=    40.00 Ry     beta= 0.50
     Davidson diagonalization with overlap
     ethr =  1.00E-06,  avg # of iterations =  2.2

     total cpu time spent up to now is       52.3 secs

     total energy              =     -91.15869467 Ry
     Harris-Foulkes estimate   =     -91.28696256 Ry
     estimated scf accuracy    <       0.00006782 Ry

     iteration #  2     ecut=    40.00 Ry     beta= 0.50
     Davidson diagonalization with overlap
     ethr =  2.12E-07,  avg # of iterations =  3.1

     total cpu time spent up to now is       54.8 secs

     total energy              =     -91.15884838 Ry
     Harris-Foulkes estimate   =     -91.15886515 Ry
     estimated scf accuracy    <       0.00005043 Ry

     iteration #  3     ecut=    40.00 Ry     beta= 0.50
     Davidson diagonalization with overlap
     ethr =  1.58E-07,  avg # of iterations =  1.0

     total cpu time spent up to now is       56.2 secs

     total energy              =     -91.15883726 Ry
     Harris-Foulkes estimate   =     -91.15884995 Ry
     estimated scf accuracy    <       0.00001821 Ry

     iteration #  4     ecut=    40.00 Ry     beta= 0.50
     Davidson diagonalization with overlap
     ethr =  5.69E-08,  avg # of iterations =  2.0

     total cpu time spent up to now is       58.1 secs

     total energy              =     -91.15884167 Ry
     Harris-Foulkes estimate   =     -91.15884260 Ry
     estimated scf accuracy    <       0.00000181 Ry

     iteration #  5     ecut=    40.00 Ry     beta= 0.50
     Davidson diagonalization with overlap
     ethr =  5.65E-09,  avg # of iterations =  2.0

     total cpu time spent up to now is       60.1 secs

     total energy              =     -91.15884173 Ry
     Harris-Foulkes estimate   =     -91.15884184 Ry
     estimated scf accuracy    <       0.00000015 Ry

     iteration #  6     ecut=    40.00 Ry     beta= 0.50
     Davidson diagonalization with overlap
     ethr =  4.84E-10,  avg # of iterations =  2.0

     total cpu time spent up to now is       62.1 secs

     total energy              =     -91.15884177 Ry
     Harris-Foulkes estimate   =     -91.15884177 Ry
     estimated scf accuracy    <       0.00000001 Ry

     iteration #  7     ecut=    40.00 Ry     beta= 0.50
     Davidson diagonalization with overlap
     ethr =  3.53E-11,  avg # of iterations =  1.0

     total cpu time spent up to now is       63.6 secs

     total energy              =     -91.15884177 Ry
     Harris-Foulkes estimate   =     -91.15884177 Ry
     estimated scf accuracy    <          8.8E-09 Ry

     iteration #  8     ecut=    40.00 Ry     beta= 0.50
     Davidson diagonalization with overlap
     ethr =  2.77E-11,  avg # of iterations =  2.0

     total cpu time spent up to now is       65.8 secs

     total energy              =     -91.15884177 Ry
     Harris-Foulkes estimate   =     -91.15884177 Ry
     estimated scf accuracy    <          1.1E-10 Ry

     iteration #  9     ecut=    40.00 Ry     beta= 0.50
     Davidson diagonalization with overlap
     ethr =  3.49E-13,  avg # of iterations =  2.3

     total cpu time spent up to now is       68.1 secs

     End of self-consistent calculation

          k = 0.0000 0.0000 0.0000 (  2747 PWs)   bands (ev):

   -15.2903 -13.8205 -13.8205 -10.0130  -9.0188  -3.1939  -3.1853  -3.1853
    -2.2280  -1.4768  -1.4768  -0.8468  -0.8468   1.1852   1.1897   2.0191
     6.0686   7.1966   9.1477   9.1477

          k = 0.0001-0.0008 0.6930 (  2724 PWs)   bands (ev):

   -14.5872 -13.1315 -13.1314  -9.4080  -8.4719  -4.6380  -3.9602  -3.9601
    -2.3660  -2.3528  -2.3528  -1.0725  -0.6886  -0.6884  -0.2459   2.8708
     5.6269   8.1241  10.0744  10.0752

          k = 0.0001-0.0016 1.3859 (  2713 PWs)   bands (ev):

   -12.5192 -11.1284 -11.1284  -9.3574  -7.6813  -7.6813  -7.6076  -5.9453
    -4.6953  -3.2521  -2.2333  -2.2332  -0.0025   1.3300   1.3303   3.2881
     5.3613   6.9592   6.9596   9.2099

          k =-0.0047 0.6402-0.0004 (  2727 PWs)   bands (ev):

   -15.2734 -13.8067 -13.8048 -10.0026  -9.0100  -3.4657  -3.1821  -3.1803
    -2.2253  -1.7380  -1.7075  -0.8456  -0.8455   1.1862   1.1903   1.8680
     5.8202   9.0330  10.6729  10.9431

          k =-0.0047 0.6394 0.6926 (  2728 PWs)   bands (ev):

   -14.5714 -13.1185 -13.1167  -9.3985  -8.4637  -4.6334  -3.9562  -3.9554
    -2.6262  -2.3504  -2.3494  -1.0695  -0.9360  -0.9069  -0.2441   2.7248
     5.4558   9.9150  10.1465  10.1659

          k =-0.0046 0.6386 1.3855 (  2734 PWs)   bands (ev):

   -12.5060 -11.1177 -11.1162  -9.3479  -7.6740  -7.6731  -7.6004  -5.9395
    -4.6904  -3.2486  -2.2320  -2.2318  -0.2244   1.1374   1.1569   3.1324
     5.2316   6.7340   6.7469   9.1116

          k =-0.0049 0.6419-1.3863 (  2730 PWs)   bands (ev):

   -12.5059 -11.1176 -11.1161  -9.3480  -7.6741  -7.6731  -7.6003  -5.9394
    -4.6905  -3.2487  -2.2319  -2.2318  -0.2262   1.1362   1.1555   3.1340
     5.2304   6.7353   6.7487   9.1130

          k =-0.0048 0.6410-0.6933 (  2731 PWs)   bands (ev):

   -14.5713 -13.1184 -13.1166  -9.3985  -8.4637  -4.6335  -3.9562  -3.9555
    -2.6273  -2.3504  -2.3495  -1.0696  -0.9370  -0.9080  -0.2441   2.7241
     5.4555   9.9266  10.1473  10.1668

          k =-0.5022 0.0136 0.0000 (  2748 PWs)   bands (ev):

   -14.9205 -14.9205 -12.0276 -12.0275  -6.4653  -6.4653  -2.7570  -2.7570
    -1.8623  -1.8623  -0.1871  -0.1870   0.4762   0.4763   0.4864   0.4864
     7.6851   7.6852   8.1523   8.1523

          k =-0.5021 0.0128 0.6930 (  2721 PWs)   bands (ev):

   -14.2203 -14.2203 -11.3669 -11.3669  -6.1729  -6.1729  -4.1401  -4.1401
    -2.2477  -2.2476  -1.9390  -1.9390  -0.4637  -0.4637   1.2446   1.2448
     7.5488   7.5489   8.6115   8.6119

          k =-0.5020 0.0120 1.3859 (  2728 PWs)   bands (ev):

   -12.1641 -12.1640  -9.6652  -9.6651  -8.5060  -8.5060  -6.1075  -6.1074
    -4.1362  -4.1362  -2.1675  -2.1674   0.3511   0.3514   2.5939   2.5942
     5.8205   5.8206   8.4106   8.4110

          k =-0.5069 0.6538-0.0003 (  2732 PWs)   bands (ev):

   -14.9047 -14.9036 -12.0162 -12.0138  -6.4598  -6.4572  -3.0310  -3.0145
    -1.8607  -1.8606  -0.1855  -0.1849   0.2617   0.2988   0.4767   0.4772
     7.9504   7.9857   9.4183   9.5828

          k =-0.5069 0.6530 0.6926 (  2734 PWs)   bands (ev):

   -14.2055 -14.2045 -11.3564 -11.3542  -6.1678  -6.1660  -4.1360  -4.1356
    -2.2444  -2.2440  -2.2003  -2.1847  -0.4625  -0.4624   1.0316   1.0667
     7.4155   7.4424  10.2873  10.4454

          k =-0.5068 0.6522 1.3856 (  2721 PWs)   bands (ev):

   -12.1517 -12.1509  -9.6559  -9.6546  -8.4976  -8.4975  -6.1018  -6.1006
    -4.1328  -4.1317  -2.1654  -2.1652   0.1334   0.1459   2.4364   2.4505
     5.6301   5.6310   8.2291   8.2481

          k =-0.5071 0.6555-1.3862 (  2725 PWs)   bands (ev):

   -12.1516 -12.1508  -9.6558  -9.6546  -8.4977  -8.4976  -6.1019  -6.1008
    -4.1328  -4.1317  -2.1654  -2.1652   0.1317   0.1440   2.4364   2.4504
     5.6306   5.6314   8.2302   8.2497

          k =-0.5070 0.6547-0.6933 (  2733 PWs)   bands (ev):

   -14.2054 -14.2044 -11.3564 -11.3541  -6.1678  -6.1661  -4.1360  -4.1357
    -2.2446  -2.2439  -2.2014  -2.1858  -0.4625  -0.4625   1.0309   1.0657
     7.4158   7.4427  10.2985  10.4565

     the Fermi energy is     3.4486 ev

!    total energy              =     -91.15884177 Ry
     Harris-Foulkes estimate   =     -91.15884177 Ry
     estimated scf accuracy    <          9.0E-11 Ry

     The total energy is the sum of the following terms:

     one-electron contribution =     -75.25933453 Ry
     hartree contribution      =      50.06257745 Ry
     xc contribution           =     -27.95631435 Ry
     ewald contribution        =     -38.00674081 Ry
     smearing contrib. (-TS)   =       0.00097047 Ry

     convergence has been achieved in   9 iterations

     Forces acting on atoms (cartesian axes, Ry/au):

     atom    1 type  1   force =    -0.00030884   -0.00000193    0.00001839
     atom    2 type  1   force =     0.00030416    0.00001075    0.00001277
     atom    3 type  1   force =     0.00033242    0.00000953    0.00001196
     atom    4 type  1   force =     0.00030626    0.00002022   -0.00000225
     atom    5 type  1   force =    -0.00032947   -0.00002121   -0.00002042
     atom    6 type  1   force =     0.00032411   -0.00000050   -0.00002150
     atom    7 type  1   force =    -0.00031634   -0.00001166    0.00001437
     atom    8 type  1   force =    -0.00031231   -0.00000519   -0.00001331

     Total force =     0.000898     Total SCF correction =     0.000002


     Computing stress (Cartesian axis) and pressure

          total   stress  (Ry/bohr**3)                   (kbar)     P=       -2.12
   0.00002939   0.00000113  -0.00000003            4.32        0.17       -0.00
   0.00000113  -0.00004451   0.00000002            0.17       -6.55        0.00
  -0.00000003   0.00000002  -0.00002817           -0.00        0.00       -4.14


     number of scf cycles    =   6
     number of bfgs steps    =   4

     enthalpy old            =     -91.1587474761 Ry
     enthalpy new            =     -91.1587986217 Ry

     CASE: enthalpy_new < enthalpy_old

     new trust radius        =       0.0152686992 bohr
     new conv_thr            =            1.0E-10 Ry

     new unit-cell volume =    632.78962 a.u.^3 (    93.76975 Ang^3 )
     density =      1.70003 g/cm^3

CELL_PARAMETERS (bohr)
  16.117121443   0.120023711  -0.001455025
   0.229126966   8.403989874   0.010008317
   0.000412772   0.002717454   4.672774618

ATOMIC_POSITIONS (crystal)
C             0.3028700651        0.2018738997        0.9232764731
C             0.3862800080        0.2018828800        0.4232800311
C             0.6362753501        0.2019466014       -0.0767396782
C             0.1362794813        0.2018791845        0.9232518912
C             0.8028697236        0.2019643073        0.9232600877
C             0.8862764067        0.2019465920        0.4232590362
C             0.5528689006        1.2019386762        0.4232626962
C             0.0528690645        0.2019118590        0.4232514625



     Writing output data file ./pp.save/
     NEW-OLD atomic charge density approx. for the potential
     extrapolated charge   31.90348, renormalised to   32.00000

     total cpu time spent up to now is       68.2 secs

     Self-consistent Calculation

     iteration #  1     ecut=    40.00 Ry     beta= 0.50
     Davidson diagonalization with overlap
     ethr =  1.00E-06,  avg # of iterations =  3.0

     total cpu time spent up to now is       71.0 secs

     total energy              =     -91.15858686 Ry
     Harris-Foulkes estimate   =     -91.34911470 Ry
     estimated scf accuracy    <       0.00015404 Ry

     iteration #  2     ecut=    40.00 Ry     beta= 0.50
     Davidson diagonalization with overlap
     ethr =  4.81E-07,  avg # of iterations =  3.1

     total cpu time spent up to now is       74.1 secs

     total energy              =     -91.15893500 Ry
     Harris-Foulkes estimate   =     -91.15897299 Ry
     estimated scf accuracy    <       0.00011420 Ry

     iteration #  3     ecut=    40.00 Ry     beta= 0.50
     Davidson diagonalization with overlap
     ethr =  3.57E-07,  avg # of iterations =  1.0

     total cpu time spent up to now is       75.7 secs

     total energy              =     -91.15890984 Ry
     Harris-Foulkes estimate   =     -91.15893854 Ry
     estimated scf accuracy    <       0.00004119 Ry

     iteration #  4     ecut=    40.00 Ry     beta= 0.50
     Davidson diagonalization with overlap
     ethr =  1.29E-07,  avg # of iterations =  2.0

     total cpu time spent up to now is       78.1 secs

     total energy              =     -91.15891982 Ry
     Harris-Foulkes estimate   =     -91.15892197 Ry
     estimated scf accuracy    <       0.00000416 Ry

     iteration #  5     ecut=    40.00 Ry     beta= 0.50
     Davidson diagonalization with overlap
     ethr =  1.30E-08,  avg # of iterations =  2.0

     total cpu time spent up to now is       80.4 secs

     total energy              =     -91.15891996 Ry
     Harris-Foulkes estimate   =     -91.15892020 Ry
     estimated scf accuracy    <       0.00000035 Ry

     iteration #  6     ecut=    40.00 Ry     beta= 0.50
     Davidson diagonalization with overlap
     ethr =  1.11E-09,  avg # of iterations =  2.0

     total cpu time spent up to now is       82.9 secs

     total energy              =     -91.15892005 Ry
     Harris-Foulkes estimate   =     -91.15892005 Ry
     estimated scf accuracy    <       0.00000002 Ry

     iteration #  7     ecut=    40.00 Ry     beta= 0.50
     Davidson diagonalization with overlap
     ethr =  4.95E-11,  avg # of iterations =  1.0

     total cpu time spent up to now is       84.7 secs

     total energy              =     -91.15892004 Ry
     Harris-Foulkes estimate   =     -91.15892005 Ry
     estimated scf accuracy    <       0.00000002 Ry

     iteration #  8     ecut=    40.00 Ry     beta= 0.50
     Davidson diagonalization with overlap
     ethr =  4.95E-11,  avg # of iterations =  2.0

     total cpu time spent up to now is       87.3 secs

     total energy              =     -91.15892004 Ry
     Harris-Foulkes estimate   =     -91.15892004 Ry
     estimated scf accuracy    <          2.1E-10 Ry

     iteration #  9     ecut=    40.00 Ry     beta= 0.50
     Davidson diagonalization with overlap
     ethr =  6.50E-13,  avg # of iterations =  2.1

     total cpu time spent up to now is       89.8 secs

     total energy              =     -91.15892004 Ry
     Harris-Foulkes estimate   =     -91.15892004 Ry
     estimated scf accuracy    <          1.7E-10 Ry

     iteration # 10     ecut=    40.00 Ry     beta= 0.50
     Davidson diagonalization with overlap
     ethr =  5.34E-13,  avg # of iterations =  2.0

     total cpu time spent up to now is       92.3 secs

     End of self-consistent calculation

          k = 0.0000 0.0000 0.0000 (  2747 PWs)   bands (ev):

   -15.2647 -13.7944 -13.7943  -9.9843  -8.9925  -3.1641  -3.1564  -3.1563
    -2.2073  -1.4469  -1.4468  -0.8255  -0.8255   1.2121   1.2141   2.0491
     6.0990   7.2293   9.1803   9.1803

          k = 0.0001-0.0008 0.6928 (  2724 PWs)   bands (ev):

   -14.5619 -13.1056 -13.1055  -9.3796  -8.4461  -4.6157  -3.9360  -3.9359
    -2.3367  -2.3257  -2.3256  -1.0486  -0.6591  -0.6589  -0.2186   2.9005
     5.6551   8.1559  10.1062  10.1070

          k = 0.0001-0.0017 1.3856 (  2713 PWs)   bands (ev):

   -12.4948 -11.1035 -11.1034  -9.3342  -7.6571  -7.6570  -7.5801  -5.9190
    -4.6693  -3.2260  -2.2050  -2.2049   0.0255   1.3579   1.3582   3.3147
     5.3898   6.9867   6.9871   9.2368

          k =-0.0048 0.6422-0.0004 (  2727 PWs)   bands (ev):

   -15.2473 -13.7800 -13.7781  -9.9736  -8.9833  -3.4419  -3.1530  -3.1511
    -2.2045  -1.7138  -1.6826  -0.8242  -0.8241   1.2127   1.2150   1.8944
     5.8455   9.0821  10.7170  10.9880

          k =-0.0047 0.6413 0.6924 (  2728 PWs)   bands (ev):

   -14.5455 -13.0922 -13.0903  -9.3698  -8.4376  -4.6109  -3.9319  -3.9310
    -2.6026  -2.3232  -2.3221  -1.0455  -0.9121  -0.8823  -0.2168   2.7509
     5.4802   9.9628  10.1704  10.1903

          k =-0.0046 0.6405 1.3853 (  2734 PWs)   bands (ev):

   -12.4811 -11.0924 -11.0908  -9.3244  -7.6495  -7.6486  -7.5726  -5.9130
    -4.6642  -3.2223  -2.2036  -2.2034  -0.2014   1.1607   1.1807   3.1552
     5.2569   6.7566   6.7699   9.1358

          k =-0.0049 0.6438-1.3860 (  2730 PWs)   bands (ev):

   -12.4810 -11.0922 -11.0907  -9.3245  -7.6496  -7.6486  -7.5725  -5.9129
    -4.6643  -3.2223  -2.2036  -2.2034  -0.2033   1.1595   1.1793   3.1568
     5.2556   6.7579   6.7717   9.1373

          k =-0.0049 0.6430-0.6932 (  2731 PWs)   bands (ev):

   -14.5455 -13.0921 -13.0903  -9.3697  -8.4376  -4.6111  -3.9319  -3.9312
    -2.6038  -2.3232  -2.3223  -1.0455  -0.9131  -0.8834  -0.2168   2.7502
     5.4799   9.9744  10.1713  10.1913

          k =-0.5023 0.0137 0.0000 (  2748 PWs)   bands (ev):

   -14.8948 -14.8947 -12.0007 -12.0005  -6.4371  -6.4371  -2.7272  -2.7271
    -1.8415  -1.8413  -0.1581  -0.1578   0.4980   0.4984   0.5164   0.5166
     7.7178   7.7178   8.1820   8.1822

          k =-0.5022 0.0129 0.6929 (  2721 PWs)   bands (ev):

   -14.1949 -14.1949 -11.3404 -11.3402  -6.1461  -6.1460  -4.1170  -4.1168
    -2.2240  -2.2237  -1.9097  -1.9096  -0.4360  -0.4357   1.2741   1.2744
     7.5765   7.5767   8.6433   8.6438

          k =-0.5021 0.0120 1.3857 (  2728 PWs)   bands (ev):

   -12.1395 -12.1394  -9.6405  -9.6404  -8.4812  -8.4811  -6.0826  -6.0824
    -4.1086  -4.1085  -2.1401  -2.1399   0.3791   0.3794   2.6212   2.6215
     5.8484   5.8486   8.4378   8.4382

          k =-0.5071 0.6559-0.0003 (  2732 PWs)   bands (ev):

   -14.8785 -14.8774 -11.9889 -11.9865  -6.4314  -6.4288  -3.0072  -2.9903
    -1.8398  -1.8396  -0.1563  -0.1557   0.2867   0.3246   0.4987   0.4993
     7.9761   8.0124   9.4663   9.6324

          k =-0.5070 0.6550 0.6925 (  2734 PWs)   bands (ev):

   -14.1796 -14.1785 -11.3294 -11.3271  -6.1408  -6.1389  -4.1126  -4.1122
    -2.2206  -2.2201  -2.1767  -2.1608  -0.4347  -0.4345   1.0562   1.0922
     7.4400   7.4676  10.3335  10.4931

          k =-0.5069 0.6542 1.3853 (  2721 PWs)   bands (ev):

   -12.1267 -12.1258  -9.6309  -9.6295  -8.4725  -8.4724  -6.0766  -6.0753
    -4.1050  -4.1038  -2.1378  -2.1376   0.1564   0.1692   2.4598   2.4743
     5.6537   5.6546   8.2523   8.2718

          k =-0.5072 0.6575-1.3860 (  2725 PWs)   bands (ev):

   -12.1266 -12.1257  -9.6308  -9.6295  -8.4725  -8.4724  -6.0767  -6.0756
    -4.1050  -4.1039  -2.1379  -2.1376   0.1547   0.1673   2.4599   2.4742
     5.6542   5.6550   8.2535   8.2735

          k =-0.5071 0.6567-0.6932 (  2733 PWs)   bands (ev):

   -14.1795 -14.1785 -11.3294 -11.3270  -6.1407  -6.1389  -4.1127  -4.1123
    -2.2207  -2.2200  -2.1778  -2.1619  -0.4347  -0.4345   1.0555   1.0911
     7.4403   7.4679  10.3448  10.5044

     the Fermi energy is     3.4735 ev

!    total energy              =     -91.15892004 Ry
     Harris-Foulkes estimate   =     -91.15892004 Ry
     estimated scf accuracy    <          4.9E-12 Ry

     The total energy is the sum of the following terms:

     one-electron contribution =     -74.59087682 Ry
     hartree contribution      =      49.75852046 Ry
     xc contribution           =     -27.95621765 Ry
     ewald contribution        =     -38.37132740 Ry
     smearing contrib. (-TS)   =       0.00098136 Ry

     convergence has been achieved in  10 iterations

     Forces acting on atoms (cartesian axes, Ry/au):

     atom    1 type  1   force =    -0.00043530    0.00000147   -0.00000848
     atom    2 type  1   force =     0.00042168    0.00001662   -0.00002945
     atom    3 type  1   force =     0.00051857    0.00001668    0.00000833
     atom    4 type  1   force =     0.00043537    0.00002439    0.00002168
     atom    5 type  1   force =    -0.00051818   -0.00001858   -0.00000277
     atom    6 type  1   force =     0.00048784    0.00000736    0.00000027
     atom    7 type  1   force =    -0.00046129   -0.00002762    0.00000377
     atom    8 type  1   force =    -0.00044870   -0.00002033    0.00000664

     Total force =     0.001323     Total SCF correction =     0.000001


     Computing stress (Cartesian axis) and pressure

          total   stress  (Ry/bohr**3)                   (kbar)     P=       -2.26
   0.00003622   0.00000123  -0.00000004            5.33        0.18       -0.01
   0.00000123  -0.00004497   0.00000001            0.18       -6.62        0.00
  -0.00000004   0.00000001  -0.00003741           -0.01        0.00       -5.50


     number of scf cycles    =   7
     number of bfgs steps    =   5

     enthalpy old            =     -91.1587986217 Ry
     enthalpy new            =     -91.1588770286 Ry

     CASE: enthalpy_new < enthalpy_old

     new trust radius        =       0.0229381103 bohr
     new conv_thr            =            1.0E-10 Ry

     new unit-cell volume =    629.91410 a.u.^3 (    93.34364 Ang^3 )
     density =      1.70779 g/cm^3

CELL_PARAMETERS (bohr)
  16.113799465   0.120907425  -0.001452107
   0.229821675   8.365701236   0.010041783
   0.000413733   0.002722423   4.673807885

ATOMIC_POSITIONS (crystal)
C             0.3028831502        0.2018733357        0.9233205475
C             0.3862682843        0.2018826991        0.4233295336
C             0.6362634280        0.2019440527       -0.0767277891
C             0.1362670847        0.2018837830        0.9232278467
C             0.8028810923        0.2019552227        0.9232275879
C             0.8862649443        0.2019398741        0.4232215433
C             0.5528803877        1.2019447580        0.4232843754
C             0.0528806285        0.2019202747        0.4232183547



     Writing output data file ./pp.save/
     NEW-OLD atomic charge density approx. for the potential
     extrapolated charge   31.85392, renormalised to   32.00000

     total cpu time spent up to now is       92.4 secs

     Self-consistent Calculation

     iteration #  1     ecut=    40.00 Ry     beta= 0.50
     Davidson diagonalization with overlap
     ethr =  1.00E-06,  avg # of iterations =  3.6

     total cpu time spent up to now is       96.2 secs

     total energy              =     -91.15827764 Ry
     Harris-Foulkes estimate   =     -91.44263100 Ry
     estimated scf accuracy    <       0.00035419 Ry

     iteration #  2     ecut=    40.00 Ry     beta= 0.50
     Davidson diagonalization with overlap
     ethr =  1.11E-06,  avg # of iterations =  3.4

     total cpu time spent up to now is      100.0 secs

     total energy              =     -91.15907251 Ry
     Harris-Foulkes estimate   =     -91.15915914 Ry
     estimated scf accuracy    <       0.00026033 Ry

     iteration #  3     ecut=    40.00 Ry     beta= 0.50
     Davidson diagonalization with overlap
     ethr =  8.14E-07,  avg # of iterations =  1.0

     total cpu time spent up to now is      102.0 secs

     total energy              =     -91.15901537 Ry
     Harris-Foulkes estimate   =     -91.15908057 Ry
     estimated scf accuracy    <       0.00009361 Ry

     iteration #  4     ecut=    40.00 Ry     beta= 0.50
     Davidson diagonalization with overlap
     ethr =  2.93E-07,  avg # of iterations =  2.0

     total cpu time spent up to now is      104.8 secs

     total energy              =     -91.15903810 Ry
     Harris-Foulkes estimate   =     -91.15904305 Ry
     estimated scf accuracy    <       0.00000969 Ry

     iteration #  5     ecut=    40.00 Ry     beta= 0.50
     Davidson diagonalization with overlap
     ethr =  3.03E-08,  avg # of iterations =  2.0

     total cpu time spent up to now is      107.4 secs

     total energy              =     -91.15903834 Ry
     Harris-Foulkes estimate   =     -91.15903895 Ry
     estimated scf accuracy    <       0.00000087 Ry

     iteration #  6     ecut=    40.00 Ry     beta= 0.50
     Davidson diagonalization with overlap
     ethr =  2.71E-09,  avg # of iterations =  2.0

     total cpu time spent up to now is      110.3 secs

     total energy              =     -91.15903856 Ry
     Harris-Foulkes estimate   =     -91.15903866 Ry
     estimated scf accuracy    <       0.00000020 Ry

     iteration #  7     ecut=    40.00 Ry     beta= 0.50
     Davidson diagonalization with overlap
     ethr =  6.15E-10,  avg # of iterations =  2.0

     total cpu time spent up to now is      113.1 secs

     total energy              =     -91.15903857 Ry
     Harris-Foulkes estimate   =     -91.15903858 Ry
     estimated scf accuracy    <       0.00000002 Ry

     iteration #  8     ecut=    40.00 Ry     beta= 0.50
     Davidson diagonalization with overlap
     ethr =  6.02E-11,  avg # of iterations =  2.0

     total cpu time spent up to now is      116.2 secs

     total energy              =     -91.15903857 Ry
     Harris-Foulkes estimate   =     -91.15903857 Ry
     estimated scf accuracy    <          4.0E-10 Ry

     iteration #  9     ecut=    40.00 Ry     beta= 0.50
     Davidson diagonalization with overlap
     ethr =  1.25E-12,  avg # of iterations =  2.4

     total cpu time spent up to now is      119.2 secs

     End of self-consistent calculation

          k = 0.0000 0.0000 0.0000 (  2747 PWs)   bands (ev):

   -15.2262 -13.7551 -13.7550  -9.9420  -8.9529  -3.1191  -3.1136  -3.1134
[...]

     total cpu time spent up to now is     1961.3 secs

     total energy              =     -91.16156277 Ry
     Harris-Foulkes estimate   =     -91.16156277 Ry
     estimated scf accuracy    <          5.8E-09 Ry

     iteration #  6     ecut=    40.00 Ry     beta= 0.50
     Davidson diagonalization with overlap
     ethr =  1.81E-11,  avg # of iterations =  2.1

     total cpu time spent up to now is     1975.6 secs

     total energy              =     -91.16156277 Ry
     Harris-Foulkes estimate   =     -91.16156277 Ry
     estimated scf accuracy    <          3.4E-10 Ry

     iteration #  7     ecut=    40.00 Ry     beta= 0.50
     Davidson diagonalization with overlap
     ethr =  1.07E-12,  avg # of iterations =  2.8

     total cpu time spent up to now is     1993.0 secs

     End of self-consistent calculation

          k = 0.0000 0.0000 0.0000 (  2747 PWs)   bands (ev):

   -14.0850 -12.6076 -12.6058  -8.7868  -7.7867  -1.9527  -1.9527  -1.6954
    -0.9792  -0.0818  -0.0765   0.4011   0.4017   2.4126   2.4380   3.2385
     7.2577   8.8582  10.9950  11.0165

          k = 0.0004-0.0035 0.6934 (  2724 PWs)   bands (ev):

   -13.3795 -11.9167 -11.9148  -8.1806  -7.2390  -3.4000  -2.7229  -2.7221
    -1.1181  -1.1172  -0.8756   0.1714   0.6995   0.7091   0.9873   4.0897
     6.8773   9.7635  11.4786  11.4943

          k = 0.0009-0.0070 1.3867 (  2713 PWs)   bands (ev):

   -11.3046  -9.9082  -9.9062  -8.1307  -6.4632  -6.4512  -6.3660  -4.7130
    -3.4592  -2.0199  -0.9996  -0.9972   1.4577   2.6960   2.7104   4.6721
     6.5832   8.2993   8.3196  10.4361

          k =-0.0611 0.7309-0.0024 (  2727 PWs)   bands (ev):

   -14.0210 -12.5787 -12.5403  -8.7721  -7.7732  -2.3625  -1.9670  -1.9462
    -0.9694  -0.7608  -0.3870   0.4050   0.4099   2.4102   2.4395   3.0854
     7.0731  11.5991  12.0728  12.6932

          k =-0.0606 0.7274 0.6909 (  2728 PWs)   bands (ev):

   -13.3193 -11.8898 -11.8530  -8.1672  -7.2250  -3.3796  -2.7186  -2.7031
    -1.5138  -1.1239  -1.1106   0.0533   0.1761   0.4140   0.9884   3.9396
     6.6829  11.2673  11.4773  12.3918

          k =-0.0602 0.7239 1.3843 (  2734 PWs)   bands (ev):

   -11.2538  -9.8848  -9.8543  -8.0923  -6.4429  -6.4196  -6.3527  -4.7033
    -3.4512  -2.0147  -1.0049  -0.9977   0.9065   2.1850   2.4389   4.2786
     6.4611   7.8206   7.9963  10.3351

          k =-0.0620 0.7379-1.3892 (  2730 PWs)   bands (ev):

   -11.2518  -9.8825  -9.8539  -8.0943  -6.4448  -6.4204  -6.3525  -4.7031
    -3.4517  -2.0150  -1.0040  -0.9986   0.8870   2.1798   2.4217   4.2975
     6.4561   7.8258   8.0192  10.3408

          k =-0.0615 0.7344-0.6958 (  2731 PWs)   bands (ev):

   -13.3181 -11.8885 -11.8526  -8.1670  -7.2250  -3.3811  -2.7200  -2.7037
    -1.5250  -1.1239  -1.1112   0.0486   0.1758   0.4017   0.9882   3.9374
     6.6863  11.2748  11.4915  12.4589

          k =-0.5090 0.0651-0.0002 (  2748 PWs)   bands (ev):

   -13.7134 -13.7124 -10.8068 -10.8050  -5.2326  -5.2313  -1.2863  -1.2845
    -0.6149  -0.6126   1.0396   1.0424   1.7239   1.7273   1.7826   1.7848
     9.2898   9.2924   9.4082   9.4111

          k =-0.5086 0.0617 0.6931 (  2721 PWs)   bands (ev):

   -13.0110 -13.0100 -10.1448 -10.1428  -4.9393  -4.9379  -2.9029  -2.9010
    -1.0091  -1.0063  -0.4775  -0.4725   0.7692   0.7719   2.5373   2.5466
     8.7719   8.7747  10.2967  10.3112

          k =-0.5082 0.0582 1.3865 (  2728 PWs)   bands (ev):

   -10.9482 -10.9471  -8.4391  -8.4372  -7.2796  -7.2786  -4.8753  -4.8729
    -2.9035  -2.9024  -0.9330  -0.9312   1.7813   1.7900   3.9249   3.9382
     7.1393   7.1475   9.6854   9.7023

          k =-0.5701 0.7961-0.0027 (  2732 PWs)   bands (ev):

   -13.6644 -13.6424 -10.7981 -10.7527  -5.2468  -5.2129  -2.0110  -1.8039
    -0.6074  -0.6037   1.0322   1.0369   1.2622   1.6926   1.7257   1.7316
     9.0484   9.4048  11.4087  12.6483

          k =-0.5697 0.7926 0.6907 (  2734 PWs)   bands (ev):

   -12.9651 -12.9439 -10.1369 -10.0936  -4.9471  -4.9185  -2.8907  -2.8815
    -1.1694  -1.0052  -0.9924  -0.9678   0.7666   0.7696   2.0352   2.4550
     8.5085   8.7940  12.1910  13.2827

          k =-0.5692 0.7891 1.3841 (  2721 PWs)   bands (ev):

   -10.9093 -10.8914  -8.4209  -8.3963  -7.2507  -7.2484  -4.8690  -4.8454
    -2.9122  -2.8915  -0.9362  -0.9284   1.1983   1.3634   3.5296   3.7007
     6.8101   6.8179   9.3193   9.5572

          k =-0.5710 0.8030-1.3894 (  2725 PWs)   bands (ev):

   -10.9070 -10.8901  -8.4198  -8.3974  -7.2523  -7.2492  -4.8711  -4.8454
    -2.9113  -2.8924  -0.9374  -0.9274   1.1844   1.3420   3.5374   3.6992
     6.8199   6.8238   9.3213   9.5750

          k =-0.5706 0.7996-0.6960 (  2733 PWs)   bands (ev):

   -12.9637 -12.9431 -10.1358 -10.0937  -4.9469  -4.9194  -2.8921  -2.8824
    -1.1777  -1.0069  -0.9926  -0.9798   0.7667   0.7694   2.0342   2.4454
     8.5166   8.8012  12.2534  13.3291

     the Fermi energy is     4.8899 ev

!    total energy              =     -91.16156277 Ry
     Harris-Foulkes estimate   =     -91.16156277 Ry
     estimated scf accuracy    <          4.6E-11 Ry

     The total energy is the sum of the following terms:

     one-electron contribution =     -47.66150777 Ry
     hartree contribution      =      37.72290344 Ry
     xc contribution           =     -27.96428799 Ry
     ewald contribution        =     -53.25912296 Ry
     smearing contrib. (-TS)   =       0.00045251 Ry

     convergence has been achieved in   7 iterations

     Forces acting on atoms (cartesian axes, Ry/au):

     atom    1 type  1   force =     0.00069108   -0.00185942    0.00442495
     atom    2 type  1   force =     0.00027802   -0.00120723    0.00514353
     atom    3 type  1   force =     0.00039533    0.00111136    0.00190833
     atom    4 type  1   force =    -0.00019448    0.00120103   -0.00217137
     atom    5 type  1   force =    -0.00056220   -0.00216543   -0.00413365
     atom    6 type  1   force =     0.00079364   -0.00133282   -0.00484509
     atom    7 type  1   force =    -0.00077496    0.00210813    0.00290971
     atom    8 type  1   force =    -0.00062644    0.00214437   -0.00323640

     Total force =     0.011819     Total SCF correction =     0.000014


     Computing stress (Cartesian axis) and pressure

          total   stress  (Ry/bohr**3)                   (kbar)     P=       -0.25
  -0.00000074   0.00000585  -0.00000044           -0.11        0.86       -0.06
   0.00000585   0.00000241  -0.00000008            0.86        0.36       -0.01
  -0.00000044  -0.00000008  -0.00000668           -0.06       -0.01       -0.98


     number of scf cycles    =  32
     number of bfgs steps    =  30

     enthalpy old            =     -91.1614351082 Ry
     enthalpy new            =     -91.1615251186 Ry

     CASE: enthalpy_new < enthalpy_old


     WARNING: bfgs curvature condition failed, Theta= 0.999
     new trust radius        =       0.0059612701 bohr
     new conv_thr            =            1.0E-10 Ry

     new unit-cell volume =    553.81578 a.u.^3 (    82.06703 Ang^3 )
     density =      1.94246 g/cm^3

CELL_PARAMETERS (bohr)
  16.069193287   1.358286964  -0.003691216
   0.964054006   7.462781106   0.037248552
  -0.000110127   0.015689571   4.669240819

ATOMIC_POSITIONS (crystal)
C             0.3027135568        0.2026195998        0.9185089662
C             0.3862713252        0.2024674742        0.4178593782
C             0.6363855455        0.2014075604       -0.0788417323
C             0.1364727339        0.2005252818        0.9255487782
C             0.8026550319        0.2037546016        0.9278249592
C             0.8861885094        0.2032807206        0.4284777514
C             0.5529391851        1.2008148656        0.4200287908
C             0.0529631123        0.2004738959        0.4266951083



     Writing output data file ./pp.save/
     NEW-OLD atomic charge density approx. for the potential
     extrapolated charge   31.99293, renormalised to   32.00000

     total cpu time spent up to now is     1993.5 secs

     Self-consistent Calculation

     iteration #  1     ecut=    40.00 Ry     beta= 0.50
     Davidson diagonalization with overlap
     ethr =  1.00E-06,  avg # of iterations =  2.0

     Threshold (ethr) on eigenvalues was too large:
     Diagonalizing with lowered threshold

     Davidson diagonalization with overlap
     ethr =  3.25E-09,  avg # of iterations =  3.6

     total cpu time spent up to now is     2027.6 secs

     total energy              =     -91.16158390 Ry
     Harris-Foulkes estimate   =     -91.17019941 Ry
     estimated scf accuracy    <       0.00000116 Ry

     iteration #  2     ecut=    40.00 Ry     beta= 0.50
     Davidson diagonalization with overlap
     ethr =  3.62E-09,  avg # of iterations =  2.6

     total cpu time spent up to now is     2043.9 secs

     total energy              =     -91.16158540 Ry
     Harris-Foulkes estimate   =     -91.16158555 Ry
     estimated scf accuracy    <       0.00000060 Ry

     iteration #  3     ecut=    40.00 Ry     beta= 0.50
     Davidson diagonalization with overlap
     ethr =  1.87E-09,  avg # of iterations =  1.0

     total cpu time spent up to now is     2054.2 secs

     total energy              =     -91.16158536 Ry
     Harris-Foulkes estimate   =     -91.16158542 Ry
     estimated scf accuracy    <       0.00000020 Ry

     iteration #  4     ecut=    40.00 Ry     beta= 0.50
     Davidson diagonalization with overlap
     ethr =  6.23E-10,  avg # of iterations =  2.0

     total cpu time spent up to now is     2068.9 secs

     total energy              =     -91.16158540 Ry
     Harris-Foulkes estimate   =     -91.16158540 Ry
     estimated scf accuracy    <       0.00000003 Ry

     iteration #  5     ecut=    40.00 Ry     beta= 0.50
     Davidson diagonalization with overlap
     ethr =  9.95E-11,  avg # of iterations =  1.4

     total cpu time spent up to now is     2080.4 secs

     total energy              =     -91.16158539 Ry
     Harris-Foulkes estimate   =     -91.16158540 Ry
     estimated scf accuracy    <          8.8E-09 Ry

     iteration #  6     ecut=    40.00 Ry     beta= 0.50
     Davidson diagonalization with overlap
     ethr =  2.75E-11,  avg # of iterations =  1.9

     total cpu time spent up to now is     2093.5 secs

     total energy              =     -91.16158539 Ry
     Harris-Foulkes estimate   =     -91.16158540 Ry
     estimated scf accuracy    <          1.0E-09 Ry

     iteration #  7     ecut=    40.00 Ry     beta= 0.50
     Davidson diagonalization with overlap
     ethr =  3.25E-12,  avg # of iterations =  2.1

     total cpu time spent up to now is     2108.3 secs

     End of self-consistent calculation

          k = 0.0000 0.0000 0.0000 (  2747 PWs)   bands (ev):

   -14.0834 -12.6057 -12.6038  -8.7839  -7.7848  -1.9503  -1.9501  -1.6931
    -0.9778  -0.0811  -0.0759   0.4028   0.4035   2.4147   2.4403   3.2376
     7.2551   8.8608  11.0032  11.0246

          k = 0.0005-0.0035 0.6934 (  2724 PWs)   bands (ev):

   -13.3779 -11.9148 -11.9128  -8.1778  -7.2372  -3.3984  -2.7211  -2.7201
    -1.1157  -1.1148  -0.8734   0.1737   0.7001   0.7098   0.9891   4.0890
     6.8764   9.7660  11.4795  11.4950

          k = 0.0009-0.0070 1.3867 (  2713 PWs)   bands (ev):

   -11.3030  -9.9064  -9.9043  -8.1292  -6.4609  -6.4494  -6.3639  -4.7111
    -3.4567  -2.0180  -0.9974  -0.9949   1.4598   2.6968   2.7114   4.6736
     6.5828   8.2999   8.3205  10.4363

          k =-0.0618 0.7310-0.0025 (  2727 PWs)   bands (ev):

   -14.0192 -12.5772 -12.5383  -8.7698  -7.7717  -2.3609  -1.9648  -1.9441
    -0.9679  -0.7602  -0.3825   0.4067   0.4117   2.4123   2.4417   3.0894
     7.0776  11.6032  12.0678  12.6953

          k =-0.0613 0.7275 0.6909 (  2728 PWs)   bands (ev):

   -13.3176 -11.8882 -11.8510  -8.1649  -7.2235  -3.3780  -2.7169  -2.7013
    -1.5122  -1.1217  -1.1085   0.0540   0.1783   0.4184   0.9901   3.9435
     6.6862  11.2700  11.4807  12.3954

          k =-0.0609 0.7240 1.3843 (  2734 PWs)   bands (ev):

   -11.2521  -9.8832  -9.8524  -8.0907  -6.4408  -6.4176  -6.3511  -4.7017
    -3.4490  -2.0130  -1.0028  -0.9957   0.9081   2.1860   2.4425   4.2803
     6.4650   7.8227   7.9999  10.3388

          k =-0.0627 0.7380-1.3892 (  2730 PWs)   bands (ev):

   -11.2501  -9.8810  -9.8519  -8.0928  -6.4427  -6.4184  -6.3509  -4.7015
    -3.4494  -2.0133  -1.0020  -0.9965   0.8885   2.1808   2.4251   4.2994
     6.4601   7.8278   8.0231  10.3443

          k =-0.0622 0.7345-0.6958 (  2731 PWs)   bands (ev):

   -13.3164 -11.8869 -11.8507  -8.1646  -7.2235  -3.3795  -2.7183  -2.7020
    -1.5235  -1.1218  -1.1090   0.0493   0.1780   0.4060   0.9900   3.9413
     6.6898  11.2775  11.4951  12.4632

          k =-0.5092 0.0658-0.0002 (  2748 PWs)   bands (ev):

   -13.7116 -13.7107 -10.8046 -10.8028  -5.2301  -5.2289  -1.2845  -1.2827
    -0.6133  -0.6111   1.0420   1.0448   1.7258   1.7293   1.7821   1.7843
     9.2885   9.2912   9.4117   9.4146

          k =-0.5088 0.0623 0.6931 (  2721 PWs)   bands (ev):

   -13.0092 -13.0083 -10.1426 -10.1406  -4.9370  -4.9357  -2.9011  -2.8993
    -1.0071  -1.0043  -0.4757  -0.4706   0.7715   0.7742   2.5369   2.5463
     8.7716   8.7745  10.3005  10.3153

          k =-0.5083 0.0587 1.3865 (  2728 PWs)   bands (ev):

   -10.9465 -10.9454  -8.4373  -8.4353  -7.2777  -7.2767  -4.8732  -4.8708
    -2.9012  -2.9001  -0.9308  -0.9291   1.7830   1.7918   3.9254   3.9389
     7.1399   7.1482   9.6857   9.7027

          k =-0.5710 0.7968-0.0027 (  2732 PWs)   bands (ev):

   -13.6628 -13.6405 -10.7964 -10.7506  -5.2449  -5.2109  -2.0103  -1.8010
    -0.6059  -0.6022   1.0345   1.0392   1.2635   1.6980   1.7276   1.7336
     9.0526   9.4095  11.4061  12.6587

          k =-0.5706 0.7933 0.6907 (  2734 PWs)   bands (ev):

   -12.9635 -12.9421 -10.1352 -10.0915  -4.9453  -4.9166  -2.8890  -2.8798
    -1.1687  -1.0034  -0.9904  -0.9648   0.7687   0.7718   2.0367   2.4603
     8.5113   8.7978  12.1884  13.2907

          k =-0.5701 0.7897 1.3840 (  2721 PWs)   bands (ev):

   -10.9077 -10.8896  -8.4193  -8.3945  -7.2489  -7.2466  -4.8672  -4.8434
    -2.9102  -2.8894  -0.9343  -0.9264   1.1992   1.3663   3.5312   3.7036
     6.8129   6.8212   9.3217   9.5616

          k =-0.5719 0.8038-1.3894 (  2725 PWs)   bands (ev):

   -10.9054 -10.8882  -8.4182  -8.3956  -7.2504  -7.2474  -4.8693  -4.8434
    -2.9094  -2.8904  -0.9354  -0.9254   1.1852   1.3445   3.5392   3.7021
     6.8232   6.8269   9.3234   9.5795

          k =-0.5715 0.8003-0.6960 (  2733 PWs)   bands (ev):

   -12.9621 -12.9412 -10.1341 -10.0916  -4.9451  -4.9175  -2.8904  -2.8806
    -1.1770  -1.0051  -0.9906  -0.9770   0.7688   0.7716   2.0357   2.4506
     8.5195   8.8051  12.2513  13.3374

     the Fermi energy is     4.8912 ev

!    total energy              =     -91.16158539 Ry
     Harris-Foulkes estimate   =     -91.16158540 Ry
     estimated scf accuracy    <          8.4E-11 Ry

     The total energy is the sum of the following terms:

     one-electron contribution =     -47.62827180 Ry
     hartree contribution      =      37.70866211 Ry
     xc contribution           =     -27.96455102 Ry
     ewald contribution        =     -53.27787769 Ry
     smearing contrib. (-TS)   =       0.00045300 Ry

     convergence has been achieved in   7 iterations

     Forces acting on atoms (cartesian axes, Ry/au):

     atom    1 type  1   force =     0.00074450   -0.00182143    0.00431001
     atom    2 type  1   force =     0.00022897   -0.00119646    0.00501732
     atom    3 type  1   force =     0.00035480    0.00109586    0.00187184
     atom    4 type  1   force =    -0.00028062    0.00119426   -0.00212607
     atom    5 type  1   force =    -0.00049606   -0.00211141   -0.00403404
     atom    6 type  1   force =     0.00077390   -0.00133312   -0.00474706
     atom    7 type  1   force =    -0.00073989    0.00206859    0.00284463
     atom    8 type  1   force =    -0.00058561    0.00210371   -0.00313665

     Total force =     0.011549     Total SCF correction =     0.000004


     Computing stress (Cartesian axis) and pressure

          total   stress  (Ry/bohr**3)                   (kbar)     P=       -0.11
   0.00000218   0.00000596  -0.00000035            0.32        0.88       -0.05
   0.00000596   0.00000222  -0.00000009            0.88        0.33       -0.01
  -0.00000035  -0.00000009  -0.00000674           -0.05       -0.01       -0.99


     number of scf cycles    =  33
     number of bfgs steps    =  31

     enthalpy old            =     -91.1615251186 Ry
     enthalpy new            =     -91.1615477473 Ry

     CASE: enthalpy_new < enthalpy_old

     new trust radius        =       0.0089444641 bohr
     new conv_thr            =            1.0E-10 Ry

     new unit-cell volume =    553.58171 a.u.^3 (    82.03235 Ang^3 )
     density =      1.94328 g/cm^3

CELL_PARAMETERS (bohr)
  16.066970166   1.381484558  -0.003779304
   0.977774872   7.463224717   0.037738280
  -0.000134064   0.015925496   4.669268797

ATOMIC_POSITIONS (crystal)
C             0.3027171426        0.2025823721        0.9186771988
C             0.3862731914        0.2024439055        0.4180474398
C             0.6363845435        0.2014312438       -0.0787736486
C             0.1364759277        0.2005313321        0.9254673588
C             0.8026512974        0.2037284541        0.9276699465
C             0.8861864363        0.2032697588        0.4283045517
C             0.5529371687        1.2008522534        0.4201357448
C             0.0529632923        0.2005046803        0.4265734082



     Writing output data file ./pp.save/
     NEW-OLD atomic charge density approx. for the potential
     extrapolated charge   31.98647, renormalised to   32.00000

     total cpu time spent up to now is     2108.8 secs

     Self-consistent Calculation

     iteration #  1     ecut=    40.00 Ry     beta= 0.50
     Davidson diagonalization with overlap
     ethr =  1.00E-06,  avg # of iterations =  2.7

     Threshold (ethr) on eigenvalues was too large:
     Diagonalizing with lowered threshold

     Davidson diagonalization with overlap
     ethr =  1.02E-08,  avg # of iterations =  3.0

     total cpu time spent up to now is     2144.6 secs

     total energy              =     -91.16161166 Ry
     Harris-Foulkes estimate   =     -91.17807392 Ry
     estimated scf accuracy    <       0.00000334 Ry

     iteration #  2     ecut=    40.00 Ry     beta= 0.50
     Davidson diagonalization with overlap
     ethr =  1.04E-08,  avg # of iterations =  2.8

     total cpu time spent up to now is     2162.0 secs

     total energy              =     -91.16161704 Ry
     Harris-Foulkes estimate   =     -91.16161759 Ry
     estimated scf accuracy    <       0.00000206 Ry

     iteration #  3     ecut=    40.00 Ry     beta= 0.50
     Davidson diagonalization with overlap
     ethr =  6.42E-09,  avg # of iterations =  1.0

     total cpu time spent up to now is     2172.7 secs

     total energy              =     -91.16161678 Ry
     Harris-Foulkes estimate   =     -91.16161711 Ry
     estimated scf accuracy    <       0.00000073 Ry

     iteration #  4     ecut=    40.00 Ry     beta= 0.50
     Davidson diagonalization with overlap
     ethr =  2.27E-09,  avg # of iterations =  2.0

     total cpu time spent up to now is     2188.1 secs

     total energy              =     -91.16161694 Ry
     Harris-Foulkes estimate   =     -91.16161696 Ry
     estimated scf accuracy    <       0.00000008 Ry

     iteration #  5     ecut=    40.00 Ry     beta= 0.50
     Davidson diagonalization with overlap
     ethr =  2.46E-10,  avg # of iterations =  1.1

     total cpu time spent up to now is     2199.1 secs

     total energy              =     -91.16161693 Ry
     Harris-Foulkes estimate   =     -91.16161694 Ry
     estimated scf accuracy    <       0.00000003 Ry

     iteration #  6     ecut=    40.00 Ry     beta= 0.50
     Davidson diagonalization with overlap
