
     Program PWSCF v.6.5 starts on  7Jul2022 at 17:47:12 

     This program is part of the open-source Quantum ESPRESSO suite
     for quantum simulation of materials; please cite
         "P. Giannozzi et al., J. Phys.:Condens. Matter 21 395502 (2009);
         "P. Giannozzi et al., J. Phys.:Condens. Matter 29 465901 (2017);
          URL http://www.quantum-espresso.org", 
     in publications or presentations arising from this work. More details at
     http://www.quantum-espresso.org/quote

     Parallel version (MPI), running on    96 processors

     MPI processes distributed on     2 nodes
     R & G space division:  proc/nbgrp/npool/nimage =      96
     Waiting for input...
     Reading input from standard input
     Message from routine read_cards :
     DEPRECATED: no units specified in CELL_PARAMETERS card

     Current dimensions of program PWSCF are:
     Max number of different atomic species (ntypx) = 10
     Max number of k-points (npk) =  40000
     Max angular momentum in pseudopotentials (lmaxx) =  3

     Subspace diagonalization in iterative solution of the eigenvalue problem:
     one sub-group per band group will be used
     scalapack distributed-memory algorithm (size of sub-group:  9*  9 procs)

 
     Parallelization info
     --------------------
     sticks:   dense  smooth     PW     G-vecs:    dense   smooth      PW
     Min          15      15      4                  191      191      32
     Max          16      16      5                  194      194      35
     Sum        1461    1461    459                18445    18445    3217
 


     bravais-lattice index     =            0
     lattice parameter (alat)  =      14.6576  a.u.
     unit-cell volume          =     538.2503 (a.u.)^3
     number of atoms/cell      =            8
     number of atomic types    =            1
     number of electrons       =        32.00
     number of Kohn-Sham states=           20
     kinetic-energy cutoff     =      40.0000  Ry
     charge density cutoff     =     160.0000  Ry
     convergence threshold     =      1.0E-06
     mixing beta               =       0.5000
     number of iterations used =            8  plain     mixing
     Exchange-correlation=  SLA  PW   PBE  PBE
                           (   1   4   3   4   0   0   0)
     nstep                     =          250


     celldm(1)=  14.657616  celldm(2)=   0.000000  celldm(3)=   0.000000
     celldm(4)=   0.000000  celldm(5)=   0.000000  celldm(6)=   0.000000

     crystal axes: (cart. coord. in units of alat)
               a(1) = (   0.999931   0.011775   0.000007 )  
               a(2) = (   0.033641   0.536874   0.000136 )  
               a(3) = (  -0.000048  -0.000143   0.318619 )  

     reciprocal axes: (cart. coord. in units 2 pi/alat)
               b(1) = (  1.000808 -0.062712  0.000122 )  
               b(2) = ( -0.021951  1.864008  0.000835 )  
               b(3) = ( -0.000012 -0.000797  3.138541 )  


     PseudoPot. # 1 for C  read from file:
     ./C.pbe-van_bm.upf
     MD5 check sum: 1a69bf6b8db32088f5b2163dbdb77a27
     Pseudo is Ultrasoft, Zval =  4.0
     Generated by new atomic code, or converted to UPF format
     Using radial grid of  721 points,  4 beta functions with: 
                l(1) =   0
                l(2) =   0
                l(3) =   1
                l(4) =   1
     Q(r) pseudized with  8 coefficients,  rinner =    0.800   0.800   0.800


     atomic species   valence    mass     pseudopotential
        C              4.00    12.00000     C ( 1.00)

     No symmetry found



   Cartesian axes

     site n.     atom                  positions (alat units)
         1           C   tau(   1) = (   0.1492493   0.2329304   0.0048119  )
         2           C   tau(   2) = (   0.3130516   0.1434478   0.3232900  )
         3           C   tau(   3) = (   0.3909335   0.1019317   0.1639602  )
         4           C   tau(   4) = (   0.8297080   0.4175067   0.3234260  )
         5           C   tau(   5) = (   0.9076379   0.3760110  -0.1545098  )
         6           C   tau(   6) = (   1.0712769   0.2862673   0.1641498  )
         7           C   tau(   7) = (   0.6660727   0.5073267   0.0047969  )
         8           C   tau(   8) = (   0.5545919   0.0121335   0.1639779  )

     number of k points=    14  Marzari-Vanderbilt smearing, width (Ry)=  0.0200
                       cart. coord. in units 2pi/alat
        k(    1) = (   0.0000000   0.0000000   0.0000000), wk =   0.0833333
        k(    2) = (  -0.0000030  -0.0001992   0.7846353), wk =   0.1666667
        k(    3) = (   0.0000060   0.0003985  -1.5692705), wk =   0.0833333
        k(    4) = (  -0.0073170   0.6213360   0.0002783), wk =   0.1666667
        k(    5) = (  -0.0073200   0.6211368   0.7849136), wk =   0.1666667
        k(    6) = (  -0.0073110   0.6217345  -1.5689922), wk =   0.1666667
        k(    7) = (  -0.0073140   0.6215352  -0.7843570), wk =   0.1666667
        k(    8) = (  -0.5004039   0.0313559  -0.0000609), wk =   0.0833333
        k(    9) = (  -0.5004069   0.0311567   0.7845744), wk =   0.1666667
        k(   10) = (  -0.5003979   0.0317544  -1.5693314), wk =   0.0833333
        k(   11) = (  -0.5077209   0.6526920   0.0002174), wk =   0.1666667
        k(   12) = (  -0.5077240   0.6524927   0.7848527), wk =   0.1666667
        k(   13) = (  -0.5077149   0.6530904  -1.5690532), wk =   0.1666667
        k(   14) = (  -0.5077179   0.6528912  -0.7844179), wk =   0.1666667

     Dense  grid:    18445 G-vectors     FFT dimensions: (  60,  32,  20)

     Estimated max dynamical RAM per process >       2.57 MB

     Estimated total dynamical RAM >     246.54 MB

     Initial potential from superposition of free atoms

     starting charge   31.99968, renormalised to   32.00000
     Starting wfcs are   32 randomized atomic wfcs

     total cpu time spent up to now is        0.6 secs

     Self-consistent Calculation

     iteration #  1     ecut=    40.00 Ry     beta= 0.50
     Davidson diagonalization with overlap
     ethr =  1.00E-02,  avg # of iterations =  2.5

     total cpu time spent up to now is        1.4 secs

     total energy              =     -91.12039561 Ry
     Harris-Foulkes estimate   =     -91.49886696 Ry
     estimated scf accuracy    <       0.77775794 Ry

     iteration #  2     ecut=    40.00 Ry     beta= 0.50
     Davidson diagonalization with overlap
     ethr =  2.43E-03,  avg # of iterations =  2.1

     total cpu time spent up to now is        2.0 secs

     total energy              =     -91.14913652 Ry
     Harris-Foulkes estimate   =     -91.18163044 Ry
     estimated scf accuracy    <       0.07211030 Ry

     iteration #  3     ecut=    40.00 Ry     beta= 0.50
     Davidson diagonalization with overlap
     ethr =  2.25E-04,  avg # of iterations =  4.0

     total cpu time spent up to now is        3.0 secs

     total energy              =     -91.16042939 Ry
     Harris-Foulkes estimate   =     -91.16042276 Ry
     estimated scf accuracy    <       0.00202352 Ry

     iteration #  4     ecut=    40.00 Ry     beta= 0.50
     Davidson diagonalization with overlap
     ethr =  6.32E-06,  avg # of iterations =  5.4

     total cpu time spent up to now is        4.2 secs

     total energy              =     -91.16061477 Ry
     Harris-Foulkes estimate   =     -91.16067586 Ry
     estimated scf accuracy    <       0.00015978 Ry

     iteration #  5     ecut=    40.00 Ry     beta= 0.50
     Davidson diagonalization with overlap
     ethr =  4.99E-07,  avg # of iterations =  2.1

     total cpu time spent up to now is        4.9 secs

     total energy              =     -91.16064778 Ry
     Harris-Foulkes estimate   =     -91.16064927 Ry
     estimated scf accuracy    <       0.00000582 Ry

     iteration #  6     ecut=    40.00 Ry     beta= 0.50
     Davidson diagonalization with overlap
     ethr =  1.82E-08,  avg # of iterations =  2.4

     total cpu time spent up to now is        5.6 secs

     total energy              =     -91.16064847 Ry
     Harris-Foulkes estimate   =     -91.16064904 Ry
     estimated scf accuracy    <       0.00000154 Ry

     iteration #  7     ecut=    40.00 Ry     beta= 0.50
     Davidson diagonalization with overlap
     ethr =  4.80E-09,  avg # of iterations =  2.0

     total cpu time spent up to now is        6.3 secs

     End of self-consistent calculation

          k = 0.0000 0.0000 0.0000 (  2313 PWs)   bands (ev):

   -13.8216 -12.3074 -12.3070  -8.5532  -7.2593  -1.4627  -1.4620  -1.3322
    -0.8939  -0.0371  -0.0357   0.4308   0.4317   2.3222   2.9625   3.1070
     7.3563   9.2634  12.2822  12.2876

          k =-0.0000-0.0002 0.7846 (  2285 PWs)   bands (ev):

   -12.7254 -11.2372 -11.2367  -7.6314  -6.4759  -4.1534  -3.3325  -3.3319
    -0.8361  -0.8354  -0.7345  -0.0505   0.9029   1.2057   1.2071   4.3119
     6.8516  10.6710  10.9508  10.9526

          k = 0.0000 0.0004-1.5693 (  2294 PWs)   bands (ev):

    -9.5507  -9.5505  -8.5179  -8.5169  -7.5978  -7.5973  -4.9101  -4.9100
    -3.0046  -3.0043  -0.5500  -0.5494   3.4358   3.4363   3.5560   3.5570
     7.3652   7.3680   8.1987   8.1994

          k =-0.0073 0.6213 0.0003 (  2316 PWs)   bands (ev):

   -13.5969 -13.0562 -11.2127  -9.7600  -5.8623  -3.7410  -1.7292  -1.5590
    -0.7278  -0.2640   0.6983   1.2628   1.5116   2.0092   2.3235   2.4095
     8.8797  11.0224  11.4800  12.6775

          k =-0.0073 0.6211 0.7849 (  2297 PWs)   bands (ev):

   -12.5074 -11.9772 -10.1660  -8.7684  -5.3586  -4.2127  -3.7987  -2.5477
    -2.3455  -1.3023  -0.4225  -0.2479   0.4939   0.9749   2.6781   3.5398
     7.9518   9.3355  12.4861  12.7518

          k =-0.0073 0.6217-1.5690 (  2296 PWs)   bands (ev):

    -9.3582  -9.3580  -8.9006  -8.9001  -6.9242  -6.9241  -5.7295  -5.7294
    -2.1866  -2.1861  -1.0503  -1.0497   3.0990   3.1003   3.1216   3.1222
     7.7505   7.7508   8.0577   8.0585

          k =-0.0073 0.6215-0.7844 (  2296 PWs)   bands (ev):

   -12.5074 -11.9774 -10.1658  -8.7687  -5.3578  -4.2132  -3.7991  -2.5474
    -2.3455  -1.3023  -0.4219  -0.2480   0.4940   0.9748   2.6787   3.5390
     7.9517   9.3350  12.4859  12.7499

          k =-0.5004 0.0314-0.0001 (  2306 PWs)   bands (ev):

   -13.4394 -13.4381 -10.4866 -10.4848  -4.7890  -4.7873  -1.0225  -1.0197
    -0.5422  -0.5398   1.6183   1.6210   1.6428   1.6465   1.6699   1.6734
     9.4453   9.4482  10.0692  10.0724

          k =-0.5004 0.0312 0.7846 (  2288 PWs)   bands (ev):

   -12.3489 -12.3476  -9.4663  -9.4643  -4.7243  -4.7226  -3.2795  -3.2780
    -1.8006  -1.7979   0.2494   0.2520   0.8542   0.8567   2.8380   2.8403
     8.6208   8.6229  11.4407  11.4440

          k =-0.5004 0.0318-1.5693 (  2308 PWs)   bands (ev):

    -9.2090  -9.2085  -9.2071  -9.2067  -6.3264  -6.3255  -6.3245  -6.3234
    -1.5602  -1.5587  -1.5573  -1.5556   3.4904   3.4910   3.4925   3.4937
     7.7635   7.7659   7.7678   7.7683

          k =-0.5077 0.6527 0.0002 (  2305 PWs)   bands (ev):

   -13.6880 -12.7681 -11.7259  -9.0748  -6.7775  -2.6045  -2.1556  -0.8409
    -0.4141  -0.3741   0.0449   0.0516   0.8514   2.2335   2.9281   3.2922
     8.1991  11.3410  11.9336  12.7669

          k =-0.5077 0.6525 0.7849 (  2307 PWs)   bands (ev):

   -12.5995 -11.6886 -10.6713  -8.1163  -6.0577  -4.0500  -3.7933  -2.8265
    -1.6900  -0.9212  -0.8290  -0.1001   0.8348   0.9412   1.3021   4.5622
     7.1846  10.2971  11.5280  12.7106

          k =-0.5077 0.6531-1.5691 (  2295 PWs)   bands (ev):

    -9.4484  -9.4481  -8.6748  -8.6741  -7.3445  -7.3441  -5.2153  -5.2152
    -2.7534  -2.7530  -0.6867  -0.6861   2.8477   2.8483   3.4341   3.4356
     7.2442   7.2451   8.5383   8.5390

          k =-0.5077 0.6529-0.7844 (  2307 PWs)   bands (ev):

   -12.5996 -11.6885 -10.6715  -8.1159  -6.0581  -4.0497  -3.7929  -2.8266
    -1.6902  -0.9213  -0.8287  -0.1002   0.8355   0.9413   1.3016   4.5623
     7.1837  10.2969  11.5283  12.7092

     the Fermi energy is     4.7921 ev

!    total energy              =     -91.16064870 Ry
     Harris-Foulkes estimate   =     -91.16064870 Ry
     estimated scf accuracy    <       0.00000001 Ry

     The total energy is the sum of the following terms:

     one-electron contribution =     -42.45946090 Ry
     hartree contribution      =      35.44903251 Ry
     xc contribution           =     -27.96833257 Ry
     ewald contribution        =     -56.18270585 Ry
     smearing contrib. (-TS)   =       0.00081810 Ry

     convergence has been achieved in   7 iterations

     Forces acting on atoms (cartesian axes, Ry/au):

     atom    1 type  1   force =     0.03586989   -0.02227109   -0.00017933
     atom    2 type  1   force =    -0.03611131    0.02262365    0.00019443
     atom    3 type  1   force =     0.03635295   -0.02337103    0.00026182
     atom    4 type  1   force =    -0.03572937    0.02253380   -0.00008576
     atom    5 type  1   force =     0.03533722   -0.02248169    0.00012509
     atom    6 type  1   force =    -0.03561878    0.02255178   -0.00034871
     atom    7 type  1   force =     0.03583791   -0.02256946    0.00010130
     atom    8 type  1   force =    -0.03593850    0.02298403   -0.00006884

     Total force =     0.119983     Total SCF correction =     0.000082


     Computing stress (Cartesian axis) and pressure

          total   stress  (Ry/bohr**3)                   (kbar)     P=        0.25
  -0.00000271   0.00000812   0.00000105           -0.40        1.19        0.15
   0.00000812   0.00000529  -0.00000054            1.19        0.78       -0.08
   0.00000105  -0.00000054   0.00000250            0.15       -0.08        0.37


     BFGS Geometry Optimization

     number of scf cycles    =   1
     number of bfgs steps    =   0

     enthalpy new            =     -91.1606121146 Ry

     new trust radius        =       0.0432181704 bohr
     new conv_thr            =       0.0000010000 Ry

     new unit-cell volume =    538.31583 a.u.^3 (    79.77018 Ang^3 )
     density =      1.99839 g/cm^3

CELL_PARAMETERS (bohr)
  14.655616352   0.175597508   0.000482089
   0.494663083   7.870427109   0.001906735
  -0.000577887  -0.002163514   4.670483958

ATOMIC_POSITIONS (crystal)
C             0.1373074456        0.4280260591        0.0148777819
C             0.3017855619        0.2637171386        1.0145814326
C             0.3874591379        0.1785304809        0.5145673030
C             0.8016990230        0.7632121251        1.0147234414
C             0.8872809787        0.6779230921       -0.4852180228
C             1.0516814944        0.5131472313        0.5148741360
C             0.6373395409        0.9281201783        0.0146658881
C             0.5517468177        0.0135566947        0.5146190397



     Writing output data file ./pp.save/
     NEW-OLD atomic charge density approx. for the potential
     extrapolated charge   32.00390, renormalised to   32.00000

     total cpu time spent up to now is        6.5 secs

     Self-consistent Calculation

     iteration #  1     ecut=    40.00 Ry     beta= 0.50
     Davidson diagonalization with overlap
     ethr =  1.00E-06,  avg # of iterations =  6.3

     total cpu time spent up to now is        8.3 secs

     total energy              =     -91.15842586 Ry
     Harris-Foulkes estimate   =     -91.15563593 Ry
     estimated scf accuracy    <       0.00289567 Ry

     iteration #  2     ecut=    40.00 Ry     beta= 0.50
     Davidson diagonalization with overlap
     ethr =  9.05E-06,  avg # of iterations =  1.1

     total cpu time spent up to now is        8.8 secs

     total energy              =     -91.15842915 Ry
     Harris-Foulkes estimate   =     -91.15860087 Ry
     estimated scf accuracy    <       0.00033928 Ry

     iteration #  3     ecut=    40.00 Ry     beta= 0.50
     Davidson diagonalization with overlap
     ethr =  1.06E-06,  avg # of iterations =  2.0

     total cpu time spent up to now is        9.5 secs

     total energy              =     -91.15849314 Ry
     Harris-Foulkes estimate   =     -91.15849324 Ry
     estimated scf accuracy    <       0.00000627 Ry

     iteration #  4     ecut=    40.00 Ry     beta= 0.50
     Davidson diagonalization with overlap
     ethr =  1.96E-08,  avg # of iterations =  2.3

     total cpu time spent up to now is       10.3 secs

     total energy              =     -91.15849423 Ry
     Harris-Foulkes estimate   =     -91.15849467 Ry
     estimated scf accuracy    <       0.00000123 Ry

     iteration #  5     ecut=    40.00 Ry     beta= 0.50
     Davidson diagonalization with overlap
     ethr =  3.84E-09,  avg # of iterations =  2.0

     total cpu time spent up to now is       11.0 secs

     End of self-consistent calculation

          k = 0.0000 0.0000 0.0000 (  2313 PWs)   bands (ev):

   -13.8254 -12.3190 -12.3186  -8.3758  -7.6476  -1.7946  -1.7942  -1.3367
    -0.5947  -0.0032  -0.0026   0.8359   0.8366   2.4260   2.9943   3.2699
     6.8614   9.2608  12.3122  12.3167

          k =-0.0000-0.0002 0.7846 (  2285 PWs)   bands (ev):

   -12.7236 -11.2431 -11.2427  -7.4223  -6.9023  -3.9252  -3.2883  -3.2874
    -0.9004  -0.8995  -0.2498  -0.0798   0.3692   1.2041   1.2051   4.6108
     6.4330  10.6610  10.9350  10.9359

          k = 0.0000 0.0004-1.5692 (  2294 PWs)   bands (ev):

    -9.5500  -9.5499  -8.6114  -8.6106  -7.4102  -7.4091  -4.6024  -4.6023
    -3.3500  -3.3499  -0.7067  -0.7063   3.2935   3.2937   3.3900   3.3919
     7.6287   7.6300   8.4632   8.4634

          k =-0.0074 0.6213 0.0003 (  2316 PWs)   bands (ev):

   -13.6019 -13.0640 -11.2266  -9.7600  -6.0853  -3.9916  -1.7296  -1.5492
    -0.4176   0.0801   0.2436   1.5965   1.7616   1.8079   2.4931   2.6216
     8.5187  10.7525  11.4804  12.6799

          k =-0.0075 0.6211 0.7849 (  2297 PWs)   bands (ev):

   -12.5065 -11.9794 -10.1745  -8.7641  -5.5683  -4.2842  -3.5853  -2.4717
    -2.2272  -1.0652  -0.4454  -0.2619   0.3333   0.6882   2.7059   3.6424
     7.7616   9.2699  12.5194  12.7005

          k =-0.0074 0.6216-1.5689 (  2296 PWs)   bands (ev):

    -9.3630  -9.3628  -8.9318  -8.9314  -6.7898  -6.7892  -5.5726  -5.5723
    -2.3803  -2.3800  -1.2077  -1.2074   2.9676   2.9683   2.9844   2.9853
     7.9982   7.9994   8.3122   8.3138

          k =-0.0074 0.6214-0.7843 (  2296 PWs)   bands (ev):

   -12.5066 -11.9793 -10.1747  -8.7638  -5.5691  -4.2832  -3.5846  -2.4726
    -2.2278  -1.0646  -0.4449  -0.2616   0.3341   0.6875   2.7056   3.6426
     7.7603   9.2706  12.5188  12.6983

          k =-0.5004 0.0315-0.0000 (  2306 PWs)   bands (ev):

   -13.4453 -13.4440 -10.4990 -10.4971  -5.0179  -5.0167  -1.0183  -1.0165
    -0.2177  -0.2171   1.1127   1.1173   1.7377   1.7396   2.2263   2.2293
     9.1473   9.1512  10.0698  10.0724

          k =-0.5005 0.0313 0.7845 (  2288 PWs)   bands (ev):

   -12.3491 -12.3478  -9.4740  -9.4720  -4.8660  -4.8642  -3.1287  -3.1279
    -1.6363  -1.6334   0.2264   0.2283   0.6415   0.6448   2.9016   2.9036
     8.4653   8.4680  11.4357  11.4384

          k =-0.5004 0.0318-1.5692 (  2308 PWs)   bands (ev):

    -9.2219  -9.2206  -9.2201  -9.2189  -6.1950  -6.1940  -6.1931  -6.1922
    -1.7271  -1.7253  -1.7242  -1.7226   3.3369   3.3383   3.3396   3.3413
     8.0256   8.0260   8.0272   8.0292

          k =-0.5079 0.6527 0.0002 (  2305 PWs)   bands (ev):

   -13.6924 -12.7774 -11.7396  -9.0306  -7.0342  -2.8904  -2.1576  -0.7619
    -0.5385  -0.3938   0.0915   0.4220   1.3000   2.2694   2.8886   3.5778
     7.7018  11.3527  11.7477  12.7634

          k =-0.5079 0.6525 0.7848 (  2307 PWs)   bands (ev):

   -12.5981 -11.6921 -10.6797  -8.0650  -6.3266  -3.8202  -3.7938  -2.7477
    -1.6965  -0.8515  -0.5621  -0.2099   0.5324   0.8224   1.3129   4.7884
     6.8756  10.2368  11.5454  12.7445

          k =-0.5078 0.6531-1.5689 (  2295 PWs)   bands (ev):

    -9.4495  -9.4494  -8.7339  -8.7332  -7.1890  -7.1883  -4.9925  -4.9922
    -3.0123  -3.0121  -0.8430  -0.8426   2.7288   2.7296   3.2739   3.2746
     7.4949   7.4971   8.8102   8.8106

          k =-0.5079 0.6529-0.7843 (  2307 PWs)   bands (ev):

   -12.5981 -11.6923 -10.6795  -8.0653  -6.3260  -3.8204  -3.7946  -2.7470
    -1.6955  -0.8511  -0.5626  -0.2107   0.5330   0.8226   1.3130   4.7877
     6.8757  10.2355  11.5461  12.7428

     the Fermi energy is     5.0120 ev

!    total energy              =     -91.15849427 Ry
     Harris-Foulkes estimate   =     -91.15849450 Ry
     estimated scf accuracy    <       0.00000026 Ry

     The total energy is the sum of the following terms:

     one-electron contribution =     -42.51459972 Ry
     hartree contribution      =      35.47513798 Ry
     xc contribution           =     -27.96968770 Ry
     ewald contribution        =     -56.15021549 Ry
     smearing contrib. (-TS)   =       0.00087067 Ry

     convergence has been achieved in   5 iterations

     Forces acting on atoms (cartesian axes, Ry/au):

     atom    1 type  1   force =    -0.05007843    0.02641588   -0.00027846
     atom    2 type  1   force =     0.05063345   -0.02663750    0.00020850
     atom    3 type  1   force =    -0.05089747    0.02641350    0.00009333
     atom    4 type  1   force =     0.04978840   -0.02617676    0.00015515
     atom    5 type  1   force =    -0.04984297    0.02607292   -0.00016127
     atom    6 type  1   force =     0.04983062   -0.02601012   -0.00006338
     atom    7 type  1   force =    -0.05012699    0.02646821   -0.00010850
     atom    8 type  1   force =     0.05069338   -0.02654614    0.00015462

     Total force =     0.160446     Total SCF correction =     0.001421


     Computing stress (Cartesian axis) and pressure

          total   stress  (Ry/bohr**3)                   (kbar)     P=        1.21
   0.00027312  -0.00015019  -0.00000075           40.18      -22.09       -0.11
  -0.00015019   0.00009631   0.00000059          -22.09       14.17        0.09
  -0.00000075   0.00000059  -0.00034476           -0.11        0.09      -50.72


     number of scf cycles    =   2
     number of bfgs steps    =   1

     enthalpy old            =     -91.1606121146 Ry
     enthalpy new            =     -91.1584576727 Ry

     CASE: enthalpy_new > enthalpy_old

     new trust radius        =       0.0187928529 bohr
     new conv_thr            =       0.0000010000 Ry

     new unit-cell volume =    538.27880 a.u.^3 (    79.76469 Ang^3 )
     density =      1.99853 g/cm^3

CELL_PARAMETERS (bohr)
  14.656172190   0.173903681   0.000266179
   0.493779819   7.869790204   0.001959437
  -0.000646891  -0.002127623   4.670323499

ATOMIC_POSITIONS (crystal)
C             0.1358696348        0.4296568414        0.0148988130
C             0.3032335398        0.2620608160        1.0145585850
C             0.3860000280        0.1802407009        0.5145349223
C             0.8031320483        0.7615625911        1.0147344935
C             0.8858632095        0.6795685478       -0.4852338321
C             1.0531102978        0.5114965071        0.5149170051
C             0.6359022414        0.9297723662        0.0146529545
C             0.5531890003        0.0118746294        0.5146280585



     Writing output data file ./pp.save/
     NEW-OLD atomic charge density approx. for the potential
     extrapolated charge   31.99780, renormalised to   32.00000

     total cpu time spent up to now is       11.0 secs

     Self-consistent Calculation

     iteration #  1     ecut=    40.00 Ry     beta= 0.50
     Davidson diagonalization with overlap
     ethr =  1.00E-06,  avg # of iterations =  5.6

     total cpu time spent up to now is       12.7 secs

     total energy              =     -91.16381336 Ry
     Harris-Foulkes estimate   =     -91.16666095 Ry
     estimated scf accuracy    <       0.00097157 Ry

     iteration #  2     ecut=    40.00 Ry     beta= 0.50
     Davidson diagonalization with overlap
     ethr =  3.04E-06,  avg # of iterations =  1.1

     total cpu time spent up to now is       13.2 secs

     total energy              =     -91.16381493 Ry
     Harris-Foulkes estimate   =     -91.16387520 Ry
     estimated scf accuracy    <       0.00011620 Ry

     iteration #  3     ecut=    40.00 Ry     beta= 0.50
     Davidson diagonalization with overlap
     ethr =  3.63E-07,  avg # of iterations =  2.0

     total cpu time spent up to now is       13.9 secs

     total energy              =     -91.16383550 Ry
     Harris-Foulkes estimate   =     -91.16383921 Ry
     estimated scf accuracy    <       0.00001026 Ry

     iteration #  4     ecut=    40.00 Ry     beta= 0.50
     Davidson diagonalization with overlap
     ethr =  3.21E-08,  avg # of iterations =  2.0

     total cpu time spent up to now is       14.6 secs

     total energy              =     -91.16383773 Ry
     Harris-Foulkes estimate   =     -91.16383769 Ry
     estimated scf accuracy    <       0.00000115 Ry

     iteration #  5     ecut=    40.00 Ry     beta= 0.50
     Davidson diagonalization with overlap
     ethr =  3.60E-09,  avg # of iterations =  2.0

     total cpu time spent up to now is       15.3 secs

     End of self-consistent calculation

          k = 0.0000 0.0000 0.0000 (  2313 PWs)   bands (ev):

   -13.8219 -12.3104 -12.3103  -8.4776  -7.4247  -1.6063  -1.6061  -1.3321
    -0.7596  -0.0199  -0.0188   0.6111   0.6114   2.6129   2.8071   3.0948
     7.1424   9.2623  12.2959  12.3011

          k =-0.0000-0.0002 0.7846 (  2285 PWs)   bands (ev):

   -12.7229 -11.2371 -11.2369  -7.5421  -6.6579  -4.0527  -3.3010  -3.3007
    -0.8759  -0.8756  -0.5250  -0.0610   0.6690   1.2080   1.2091   4.4403
     6.6715  10.6676  10.9422  10.9435

          k = 0.0000 0.0004-1.5692 (  2294 PWs)   bands (ev):

    -9.5461  -9.5460  -8.5522  -8.5520  -7.5158  -7.5157  -4.7778  -4.7778
    -3.1567  -3.1565  -0.6241  -0.6237   3.3770   3.3772   3.4867   3.4877
     7.4786   7.4806   8.3120   8.3124

          k =-0.0074 0.6213 0.0003 (  2316 PWs)   bands (ev):

   -13.5977 -13.0580 -11.2161  -9.7555  -5.9617  -3.8503  -1.7275  -1.5528
    -0.5887  -0.1102   0.5008   1.4825   1.5518   2.1460   2.2759   2.4002
     8.7196  10.9017  11.4815  12.6797

          k =-0.0074 0.6211 0.7849 (  2297 PWs)   bands (ev):

   -12.5052 -11.9761 -10.1662  -8.7602  -5.4520  -4.2337  -3.7067  -2.5251
    -2.2797  -1.1796  -0.4304  -0.2518   0.4086   0.8281   2.6944   3.5897
     7.8646   9.3038  12.5000  12.7329

          k =-0.0073 0.6217-1.5689 (  2296 PWs)   bands (ev):

    -9.3556  -9.3554  -8.9081  -8.9079  -6.8650  -6.8649  -5.6577  -5.6576
    -2.2784  -2.2780  -1.1250  -1.1246   3.0448   3.0457   3.0649   3.0651
     7.8570   7.8574   8.1668   8.1680

          k =-0.0074 0.6215-0.7843 (  2296 PWs)   bands (ev):

   -12.5052 -11.9761 -10.1662  -8.7602  -5.4518  -4.2336  -3.7066  -2.5252
    -2.2799  -1.1795  -0.4298  -0.2518   0.4089   0.8278   2.6947   3.5893
     7.8640   9.3038  12.4997  12.7309

          k =-0.5004 0.0314-0.0001 (  2306 PWs)   bands (ev):

   -13.4405 -13.4392 -10.4879 -10.4876  -4.8895  -4.8885  -1.0187  -1.0160
    -0.3970  -0.3952   1.4133   1.4138   1.6742   1.6755   1.9149   1.9157
     9.3134   9.3150  10.0698  10.0731

          k =-0.5004 0.0312 0.7846 (  2288 PWs)   bands (ev):

   -12.3471 -12.3458  -9.4642  -9.4640  -4.7805  -4.7793  -3.2204  -3.2191
    -1.7110  -1.7106   0.2417   0.2443   0.7442   0.7446   2.8706   2.8717
     8.5501   8.5511  11.4394  11.4427

          k =-0.5004 0.0318-1.5693 (  2308 PWs)   bands (ev):

    -9.2094  -9.2088  -9.2076  -9.2071  -6.2662  -6.2661  -6.2653  -6.2649
    -1.6389  -1.6383  -1.6362  -1.6357   3.4271   3.4273   3.4291   3.4298
     7.8768   7.8774   7.8785   7.8801

          k =-0.5078 0.6527 0.0002 (  2305 PWs)   bands (ev):

   -13.6886 -12.7705 -11.7296  -9.0495  -6.8933  -2.7287  -2.1547  -0.7053
    -0.5424  -0.4026   0.0677   0.2167   1.0500   2.5174   2.6384   3.4166
     7.9818  11.3475  11.8513  12.7672

          k =-0.5078 0.6525 0.7848 (  2307 PWs)   bands (ev):

   -12.5971 -11.6879 -10.6720  -8.0848  -6.1816  -3.9488  -3.7822  -2.7790
    -1.7043  -0.8369  -0.7490  -0.1614   0.7445   0.8321   1.3098   4.6651
     7.0465  10.2691  11.5351  12.7252

          k =-0.5078 0.6531-1.5690 (  2295 PWs)   bands (ev):

    -9.4444  -9.4442  -8.6937  -8.6935  -7.2770  -7.2769  -5.1149  -5.1148
    -2.8731  -2.8729  -0.7607  -0.7603   2.7988   2.7994   3.3674   3.3680
     7.3523   7.3536   8.6547   8.6552

          k =-0.5078 0.6529-0.7844 (  2307 PWs)   bands (ev):

   -12.5972 -11.6879 -10.6721  -8.0847  -6.1816  -3.9488  -3.7822  -2.7788
    -1.7040  -0.8365  -0.7492  -0.1617   0.7447   0.8326   1.3095   4.6649
     7.0460  10.2684  11.5356  12.7237

     the Fermi energy is     4.8921 ev

!    total energy              =     -91.16383783 Ry
     Harris-Foulkes estimate   =     -91.16383787 Ry
     estimated scf accuracy    <       0.00000006 Ry

     The total energy is the sum of the following terms:

     one-electron contribution =     -42.46903478 Ry
     hartree contribution      =      35.45309152 Ry
     xc contribution           =     -27.96733000 Ry
     ewald contribution        =     -56.18140889 Ry
     smearing contrib. (-TS)   =       0.00084432 Ry

     convergence has been achieved in   5 iterations

     Forces acting on atoms (cartesian axes, Ry/au):

     atom    1 type  1   force =    -0.00049095   -0.00165619   -0.00023049
     atom    2 type  1   force =     0.00061411    0.00175499    0.00020580
     atom    3 type  1   force =    -0.00054504   -0.00230050    0.00018260
     atom    4 type  1   force =     0.00046056    0.00190451    0.00002761
     atom    5 type  1   force =    -0.00071902   -0.00191398   -0.00000832
     atom    6 type  1   force =     0.00056580    0.00197610   -0.00021623
     atom    7 type  1   force =    -0.00056284   -0.00179169    0.00000290
     atom    8 type  1   force =     0.00067738    0.00202676    0.00003613

     Total force =     0.005705     Total SCF correction =     0.000474


     Computing stress (Cartesian axis) and pressure

          total   stress  (Ry/bohr**3)                   (kbar)     P=       -1.33
   0.00010156  -0.00005327   0.00000022           14.94       -7.84        0.03
  -0.00005327   0.00004017  -0.00000001           -7.84        5.91       -0.00
   0.00000022  -0.00000001  -0.00016890            0.03       -0.00      -24.85


     number of scf cycles    =   3
     number of bfgs steps    =   1

     enthalpy old            =     -91.1606121146 Ry
     enthalpy new            =     -91.1638012385 Ry

     CASE: enthalpy_new < enthalpy_old

     new trust radius        =       0.0198151667 bohr
     new conv_thr            =       0.0000000230 Ry

     new unit-cell volume =    537.90136 a.u.^3 (    79.70876 Ang^3 )
     density =      1.99993 g/cm^3

CELL_PARAMETERS (bohr)
  14.693520799   0.154452696   0.000362732
   0.484506065   7.877151570   0.001947114
  -0.000615325  -0.002132792   4.650379577

ATOMIC_POSITIONS (crystal)
C             0.1359441460        0.4293296617        0.0148475022
C             0.3031663911        0.2624023178        1.0146046708
C             0.3860750920        0.1798251467        0.5145768809
C             0.8030547003        0.7619230706        1.0147395891
C             0.8859216741        0.6792075278       -0.4852344143
C             1.0530402038        0.5118661069        0.5148670408
C             0.6359723394        0.9294263685        0.0146545945
C             0.5531254534        0.0122528000        0.5146351360



     Writing output data file ./pp.save/
     NEW-OLD atomic charge density approx. for the potential
     extrapolated charge   31.97755, renormalised to   32.00000

     total cpu time spent up to now is       15.4 secs

     Self-consistent Calculation

     iteration #  1     ecut=    40.00 Ry     beta= 0.50
     Davidson diagonalization with overlap
     ethr =  1.00E-06,  avg # of iterations =  3.9

     total cpu time spent up to now is       16.6 secs

     total energy              =     -91.16403562 Ry
     Harris-Foulkes estimate   =     -91.18832626 Ry
     estimated scf accuracy    <       0.00004650 Ry

     iteration #  2     ecut=    40.00 Ry     beta= 0.50
     Davidson diagonalization with overlap
     ethr =  1.45E-07,  avg # of iterations =  2.1

     total cpu time spent up to now is       17.3 secs

     total energy              =     -91.16405631 Ry
     Harris-Foulkes estimate   =     -91.16405898 Ry
     estimated scf accuracy    <       0.00000771 Ry

     iteration #  3     ecut=    40.00 Ry     beta= 0.50
     Davidson diagonalization with overlap
     ethr =  2.41E-08,  avg # of iterations =  2.0

     total cpu time spent up to now is       18.1 secs

     total energy              =     -91.16405673 Ry
     Harris-Foulkes estimate   =     -91.16405702 Ry
     estimated scf accuracy    <       0.00000117 Ry

     iteration #  4     ecut=    40.00 Ry     beta= 0.50
     Davidson diagonalization with overlap
     ethr =  3.64E-09,  avg # of iterations =  2.0

     total cpu time spent up to now is       18.9 secs

     total energy              =     -91.16405691 Ry
     Harris-Foulkes estimate   =     -91.16405705 Ry
     estimated scf accuracy    <       0.00000038 Ry

     iteration #  5     ecut=    40.00 Ry     beta= 0.50
     Davidson diagonalization with overlap
     ethr =  1.20E-09,  avg # of iterations =  2.0

     total cpu time spent up to now is       19.7 secs

     End of self-consistent calculation

          k = 0.0000 0.0000 0.0000 (  2313 PWs)   bands (ev):

   -13.8258 -12.3253 -12.3250  -8.5468  -7.4296  -1.6631  -1.6628  -1.3355
    -0.6602  -0.0341  -0.0335   0.6954   0.6957   2.6691   2.7659   3.0479
     7.1261   9.2637  12.2696  12.2738

          k =-0.0000-0.0002 0.7880 (  2285 PWs)   bands (ev):

   -12.7169 -11.2421 -11.2418  -7.6020  -6.6364  -4.0072  -3.2511  -3.2508
    -0.9248  -0.9246  -0.5102  -0.0532   0.6642   1.2066   1.2073   4.4050
     6.6921  10.6832  10.9743  10.9753

          k = 0.0000 0.0004-1.5760 (  2294 PWs)   bands (ev):

    -9.5095  -9.5094  -8.5144  -8.5141  -7.5160  -7.5158  -4.8096  -4.8095
    -3.1565  -3.1564  -0.6691  -0.6689   3.4119   3.4120   3.5159   3.5168
     7.4974   7.4990   8.3088   8.3089

          k =-0.0065 0.6207 0.0003 (  2316 PWs)   bands (ev):

   -13.6030 -13.0670 -11.2397  -9.7926  -5.9990  -3.9009  -1.7308  -1.5594
    -0.4911  -0.0178   0.4451   1.5279   1.5558   2.0985   2.3376   2.3650
     8.7027  10.8907  11.4789  12.6627

          k =-0.0065 0.6205 0.7883 (  2297 PWs)   bands (ev):

   -12.5006 -11.9753 -10.1797  -8.7865  -5.4470  -4.1935  -3.6806  -2.5520
    -2.2375  -1.1518  -0.4220  -0.2464   0.3642   0.8051   2.6861   3.5713
     7.8841   9.3326  12.5325  12.7394

          k =-0.0065 0.6210-1.5757 (  2296 PWs)   bands (ev):

    -9.3200  -9.3198  -8.8736  -8.8734  -6.8653  -6.8652  -5.6702  -5.6701
    -2.2991  -2.2990  -1.1631  -1.1629   3.0814   3.0824   3.0993   3.0995
     7.8674   7.8678   8.1679   8.1690

          k =-0.0065 0.6209-0.7877 (  2296 PWs)   bands (ev):

   -12.5007 -11.9753 -10.1798  -8.7865  -5.4470  -4.1935  -3.6805  -2.5519
    -2.2374  -1.1519  -0.4215  -0.2463   0.3642   0.8051   2.6863   3.5710
     7.8835   9.3325  12.5323  12.7374

          k =-0.4991 0.0307-0.0001 (  2306 PWs)   bands (ev):

   -13.4466 -13.4464 -10.5172 -10.5170  -4.9340  -4.9337  -1.0243  -1.0226
    -0.3007  -0.3002   1.3608   1.3616   1.6451   1.6462   1.9821   1.9827
     9.2843   9.2863  10.0675  10.0703

          k =-0.4991 0.0305 0.7879 (  2288 PWs)   bands (ev):

   -12.3433 -12.3431  -9.4833  -9.4830  -4.7553  -4.7550  -3.2228  -3.2224
    -1.6755  -1.6750   0.2477   0.2494   0.7088   0.7094   2.8566   2.8576
     8.5639   8.5645  11.4544  11.4572

          k =-0.4991 0.0311-1.5760 (  2308 PWs)   bands (ev):

    -9.1738  -9.1736  -9.1728  -9.1726  -6.2712  -6.2709  -6.2703  -6.2700
    -1.6690  -1.6687  -1.6670  -1.6667   3.4595   3.4601   3.4611   3.4614
     7.8855   7.8857   7.8870   7.8881

          k =-0.5056 0.6514 0.0002 (  2305 PWs)   bands (ev):

   -13.6931 -12.7820 -11.7486  -9.0984  -6.9186  -2.7831  -2.1566  -0.6064
    -0.6000  -0.4132   0.0503   0.3056   1.1288   2.5752   2.5956   3.3721
     7.9753  11.3384  11.8271  12.7654

          k =-0.5056 0.6512 0.7882 (  2307 PWs)   bands (ev):

   -12.5918 -11.6896 -10.6812  -8.1226  -6.1792  -3.9073  -3.7331  -2.7321
    -1.7467  -0.8272  -0.7295  -0.2111   0.7340   0.8341   1.3058   4.6360
     7.0750  10.2940  11.5689  12.7316

          k =-0.5056 0.6517-1.5757 (  2295 PWs)   bands (ev):

    -9.4083  -9.4082  -8.6584  -8.6581  -7.2757  -7.2756  -5.1376  -5.1375
    -2.8822  -2.8820  -0.8039  -0.8037   2.8372   2.8379   3.3989   3.3996
     7.3674   7.3686   8.6511   8.6517

          k =-0.5056 0.6516-0.7877 (  2307 PWs)   bands (ev):

   -12.5918 -11.6896 -10.6811  -8.1226  -6.1791  -3.9072  -3.7330  -2.7322
    -1.7467  -0.8268  -0.7294  -0.2110   0.7339   0.8345   1.3056   4.6358
     7.0745  10.2934  11.5691  12.7300

     the Fermi energy is     4.8636 ev

!    total energy              =     -91.16405700 Ry
     Harris-Foulkes estimate   =     -91.16405699 Ry
     estimated scf accuracy    <       0.00000002 Ry

     The total energy is the sum of the following terms:

     one-electron contribution =     -42.56683282 Ry
     hartree contribution      =      35.50993922 Ry
     xc contribution           =     -27.97588536 Ry
     ewald contribution        =     -56.13211671 Ry
     smearing contrib. (-TS)   =       0.00083868 Ry

     convergence has been achieved in   5 iterations

     Forces acting on atoms (cartesian axes, Ry/au):

     atom    1 type  1   force =    -0.00029535   -0.00021214   -0.00014165
     atom    2 type  1   force =     0.00044547    0.00018462    0.00010563
     atom    3 type  1   force =    -0.00064854   -0.00049357    0.00016554
     atom    4 type  1   force =     0.00035764    0.00033525    0.00001465
     atom    5 type  1   force =    -0.00047170   -0.00038237   -0.00002998
     atom    6 type  1   force =     0.00039272    0.00047025   -0.00017279
     atom    7 type  1   force =    -0.00039085   -0.00023323    0.00001407
     atom    8 type  1   force =     0.00061062    0.00033119    0.00004453

     Total force =     0.001672     Total SCF correction =     0.000190
     SCF correction compared to forces is large: reduce conv_thr to get better values


     Computing stress (Cartesian axis) and pressure

          total   stress  (Ry/bohr**3)                   (kbar)     P=        2.33
  -0.00002788   0.00001781  -0.00000007           -4.10        2.62       -0.01
   0.00001781   0.00000189   0.00000001            2.62        0.28        0.00
  -0.00000007   0.00000001   0.00007345           -0.01        0.00       10.80


     number of scf cycles    =   4
     number of bfgs steps    =   2

     enthalpy old            =     -91.1638012385 Ry
     enthalpy new            =     -91.1640204294 Ry

     CASE: enthalpy_new < enthalpy_old

     new trust radius        =       0.0061427740 bohr
     new conv_thr            =       0.0000000100 Ry

     new unit-cell volume =    538.37759 a.u.^3 (    79.77933 Ang^3 )
     density =      1.99816 g/cm^3

CELL_PARAMETERS (bohr)
  14.686450148   0.159035287   0.000340616
   0.486720911   7.877666659   0.001952045
  -0.000622629  -0.002131353   4.656538026

ATOMIC_POSITIONS (crystal)
C             0.1359057669        0.4293340322        0.0148247049
C             0.3032127928        0.2623948843        1.0146216447
C             0.3860192375        0.1798035103        0.5146031899
C             0.8030957385        0.7619304007        1.0147421620
C             0.8858749923        0.6791957866       -0.4852394484
C             1.0530826103        0.5118862981        0.5148396605
C             0.6359291079        0.9294289958        0.0146566366
C             0.5531797538        0.0122590920        0.5146424500



     Writing output data file ./pp.save/
     NEW-OLD atomic charge density approx. for the potential
     extrapolated charge   32.02831, renormalised to   32.00000

     total cpu time spent up to now is       19.7 secs

     Self-consistent Calculation

     iteration #  1     ecut=    40.00 Ry     beta= 0.50
     Davidson diagonalization with overlap
     ethr =  1.00E-06,  avg # of iterations =  2.0

     Threshold (ethr) on eigenvalues was too large:
     Diagonalizing with lowered threshold

     Davidson diagonalization with overlap
     ethr =  5.23E-08,  avg # of iterations =  1.8

     total cpu time spent up to now is       21.3 secs

     total energy              =     -91.16406779 Ry
     Harris-Foulkes estimate   =     -91.13350883 Ry
     estimated scf accuracy    <       0.00001694 Ry

     iteration #  2     ecut=    40.00 Ry     beta= 0.50
     Davidson diagonalization with overlap
     ethr =  5.29E-08,  avg # of iterations =  2.8

     total cpu time spent up to now is       22.3 secs

     total energy              =     -91.16409233 Ry
     Harris-Foulkes estimate   =     -91.16409461 Ry
     estimated scf accuracy    <       0.00000633 Ry

     iteration #  3     ecut=    40.00 Ry     beta= 0.50
     Davidson diagonalization with overlap
     ethr =  1.98E-08,  avg # of iterations =  1.0

     total cpu time spent up to now is       22.9 secs

     total energy              =     -91.16409153 Ry
     Harris-Foulkes estimate   =     -91.16409261 Ry
     estimated scf accuracy    <       0.00000186 Ry

     iteration #  4     ecut=    40.00 Ry     beta= 0.50
     Davidson diagonalization with overlap
     ethr =  5.80E-09,  avg # of iterations =  2.0

     total cpu time spent up to now is       23.9 secs

     total energy              =     -91.16409184 Ry
     Harris-Foulkes estimate   =     -91.16409185 Ry
     estimated scf accuracy    <       0.00000005 Ry

     iteration #  5     ecut=    40.00 Ry     beta= 0.50
     Davidson diagonalization with overlap
     ethr =  1.44E-10,  avg # of iterations =  2.1

     total cpu time spent up to now is       25.0 secs

     total energy              =     -91.16409184 Ry
     Harris-Foulkes estimate   =     -91.16409185 Ry
     estimated scf accuracy    <       0.00000002 Ry

     iteration #  6     ecut=    40.00 Ry     beta= 0.50
     Davidson diagonalization with overlap
     ethr =  4.78E-11,  avg # of iterations =  2.0

     total cpu time spent up to now is       25.9 secs

     End of self-consistent calculation

          k = 0.0000 0.0000 0.0000 (  2313 PWs)   bands (ev):

   -13.8264 -12.3236 -12.3236  -8.5341  -7.4308  -1.6542  -1.6542  -1.3379
    -0.6913  -0.0344  -0.0337   0.6674   0.6675   2.6466   2.7697   3.0543
     7.1230   9.2573  12.2655  12.2691

          k =-0.0000-0.0002 0.7869 (  2285 PWs)   bands (ev):

   -12.7205 -11.2434 -11.2434  -7.5919  -6.6456  -4.0227  -3.2694  -3.2694
    -0.9175  -0.9174  -0.5211  -0.0592   0.6599   1.2022   1.2031   4.4076
     6.6793  10.6727  10.9572  10.9581

          k = 0.0000 0.0004-1.5739 (  2294 PWs)   bands (ev):

    -9.5223  -9.5223  -8.5287  -8.5287  -7.5188  -7.5188  -4.8074  -4.8073
    -3.1600  -3.1599  -0.6627  -0.6627   3.3971   3.3971   3.5020   3.5029
     7.4859   7.4875   8.3009   8.3012

          k =-0.0067 0.6206 0.0003 (  2316 PWs)   bands (ev):

   -13.6034 -13.0668 -11.2363  -9.7866  -5.9935  -3.8929  -1.7325  -1.5602
    -0.5219  -0.0475   0.4531   1.5292   1.5299   2.1040   2.3140   2.3690
     8.6989  10.8852  11.4718  12.6580

          k =-0.0067 0.6204 0.7872 (  2297 PWs)   bands (ev):

   -12.5040 -11.9780 -10.1794  -8.7837  -5.4532  -4.2093  -3.6912  -2.5496
    -2.2543  -1.1654  -0.4274  -0.2511   0.3699   0.8051   2.6828   3.5705
     7.8704   9.3163  12.5128  12.7259

          k =-0.0067 0.6210-1.5736 (  2296 PWs)   bands (ev):

    -9.3327  -9.3326  -8.8865  -8.8864  -6.8690  -6.8690  -5.6718  -5.6717
    -2.2982  -2.2982  -1.1583  -1.1582   3.0669   3.0678   3.0852   3.0853
     7.8565   7.8567   8.1586   8.1595

          k =-0.0067 0.6208-0.7867 (  2296 PWs)   bands (ev):

   -12.5041 -11.9780 -10.1794  -8.7837  -5.4532  -4.2092  -3.6911  -2.5496
    -2.2543  -1.1655  -0.4269  -0.2510   0.3699   0.8051   2.6830   3.5701
     7.8698   9.3162  12.5126  12.7238

          k =-0.4994 0.0309-0.0001 (  2306 PWs)   bands (ev):

   -13.4466 -13.4465 -10.5128 -10.5125  -4.9272  -4.9268  -1.0261  -1.0245
    -0.3310  -0.3306   1.3678   1.3683   1.6477   1.6489   1.9574   1.9580
     9.2829   9.2845  10.0620  10.0647

          k =-0.4994 0.0307 0.7869 (  2288 PWs)   bands (ev):

   -12.3463 -12.3462  -9.4819  -9.4816  -4.7669  -4.7666  -3.2262  -3.2259
    -1.6908  -1.6903   0.2421   0.2438   0.7120   0.7124   2.8546   2.8557
     8.5519   8.5525  11.4450  11.4478

          k =-0.4993 0.0312-1.5739 (  2308 PWs)   bands (ev):

    -9.1864  -9.1862  -9.1856  -9.1855  -6.2741  -6.2738  -6.2735  -6.2731
    -1.6659  -1.6656  -1.6642  -1.6639   3.4452   3.4456   3.4467   3.4469
     7.8756   7.8761   7.8774   7.8783

          k =-0.5061 0.6515 0.0002 (  2305 PWs)   bands (ev):

   -13.6937 -12.7811 -11.7463  -9.0898  -6.9156  -2.7745  -2.1584  -0.6374
    -0.5913  -0.4139   0.0513   0.2766   1.1018   2.5524   2.5998   3.3771
     7.9700  11.3336  11.8229  12.7575

          k =-0.5061 0.6513 0.7872 (  2307 PWs)   bands (ev):

   -12.5953 -11.6917 -10.6819  -8.1172  -6.1843  -3.9218  -3.7512  -2.7499
    -1.7407  -0.8327  -0.7413  -0.2039   0.7309   0.8294   1.3027   4.6364
     7.0606  10.2773  11.5476  12.7245

          k =-0.5060 0.6519-1.5736 (  2295 PWs)   bands (ev):

    -9.4211  -9.4210  -8.6717  -8.6716  -7.2794  -7.2794  -5.1371  -5.1371
    -2.8838  -2.8837  -0.7979  -0.7978   2.8222   2.8228   3.3855   3.3861
     7.3553   7.3563   8.6429   8.6435

          k =-0.5061 0.6517-0.7867 (  2307 PWs)   bands (ev):

   -12.5954 -11.6917 -10.6818  -8.1172  -6.1843  -3.9218  -3.7512  -2.7500
    -1.7406  -0.8323  -0.7413  -0.2039   0.7309   0.8299   1.3025   4.6362
     7.0601  10.2767  11.5479  12.7229

     the Fermi energy is     4.8638 ev

!    total energy              =     -91.16409184 Ry
     Harris-Foulkes estimate   =     -91.16409185 Ry
     estimated scf accuracy    <          2.3E-09 Ry

     The total energy is the sum of the following terms:

     one-electron contribution =     -42.56360563 Ry
     hartree contribution      =      35.49798913 Ry
     xc contribution           =     -27.96976256 Ry
     ewald contribution        =     -56.12955354 Ry
     smearing contrib. (-TS)   =       0.00084076 Ry

     convergence has been achieved in   6 iterations

     Forces acting on atoms (cartesian axes, Ry/au):

     atom    1 type  1   force =    -0.00009589   -0.00006906   -0.00012435
     atom    2 type  1   force =     0.00005902    0.00011208    0.00010872
     atom    3 type  1   force =    -0.00011667   -0.00044255    0.00011110
     atom    4 type  1   force =     0.00013501    0.00017743   -0.00001625
     atom    5 type  1   force =    -0.00023703   -0.00020035   -0.00001388
     atom    6 type  1   force =     0.00022401    0.00027178   -0.00013537
     atom    7 type  1   force =    -0.00006945   -0.00013462    0.00003486
     atom    8 type  1   force =     0.00010101    0.00028529    0.00003516

     Total force =     0.000828     Total SCF correction =     0.000012


     Computing stress (Cartesian axis) and pressure

          total   stress  (Ry/bohr**3)                   (kbar)     P=       -0.31
  -0.00000805   0.00000633   0.00000001           -1.18        0.93        0.00
   0.00000633   0.00000714   0.00000001            0.93        1.05        0.00
   0.00000001   0.00000001  -0.00000543            0.00        0.00       -0.80


     number of scf cycles    =   5
     number of bfgs steps    =   3

     enthalpy old            =     -91.1640204294 Ry
     enthalpy new            =     -91.1640552465 Ry

     CASE: enthalpy_new < enthalpy_old

     new trust radius        =       0.0013307327 bohr
     new conv_thr            =       0.0000000100 Ry

     new unit-cell volume =    538.31385 a.u.^3 (    79.76988 Ang^3 )
     density =      1.99840 g/cm^3

CELL_PARAMETERS (bohr)
  14.683143419   0.161643786   0.000343768
   0.487990191   7.879214662   0.001954249
  -0.000621826  -0.002130530   4.656179750

ATOMIC_POSITIONS (crystal)
C             0.1358970609        0.4293249524        0.0147961654
C             0.3032192115        0.2624094738        1.0146464266
C             0.3860097380        0.1797442206        0.5146290436
C             0.8031068390        0.7619542480        1.0147387728
C             0.8858564960        0.6791688723       -0.4852427556
C             1.0530996054        0.5119230168        0.5148084469
C             0.6359222527        0.9294112145        0.0146643614
C             0.5531887965        0.0122970015        0.5146505388



     Writing output data file ./pp.save/
     NEW-OLD atomic charge density approx. for the potential
     extrapolated charge   31.99621, renormalised to   32.00000

     total cpu time spent up to now is       25.9 secs

     Self-consistent Calculation

     iteration #  1     ecut=    40.00 Ry     beta= 0.50
     Davidson diagonalization with overlap
     ethr =  1.00E-06,  avg # of iterations =  2.0

     Threshold (ethr) on eigenvalues was too large:
     Diagonalizing with lowered threshold

     Davidson diagonalization with overlap
     ethr =  2.52E-09,  avg # of iterations =  2.7

     total cpu time spent up to now is       28.0 secs

     total energy              =     -91.16409332 Ry
     Harris-Foulkes estimate   =     -91.16819421 Ry
     estimated scf accuracy    <       0.00000085 Ry

     iteration #  2     ecut=    40.00 Ry     beta= 0.50
     Davidson diagonalization with overlap
     ethr =  2.66E-09,  avg # of iterations =  2.0

     total cpu time spent up to now is       29.1 secs

     total energy              =     -91.16409394 Ry
     Harris-Foulkes estimate   =     -91.16409396 Ry
     estimated scf accuracy    <       0.00000008 Ry

     iteration #  3     ecut=    40.00 Ry     beta= 0.50
     Davidson diagonalization with overlap
     ethr =  2.56E-10,  avg # of iterations =  1.9

     total cpu time spent up to now is       30.1 secs

     total energy              =     -91.16409394 Ry
     Harris-Foulkes estimate   =     -91.16409395 Ry
     estimated scf accuracy    <       0.00000002 Ry

     iteration #  4     ecut=    40.00 Ry     beta= 0.50
     Davidson diagonalization with overlap
     ethr =  5.33E-11,  avg # of iterations =  2.0

     total cpu time spent up to now is       31.3 secs

     End of self-consistent calculation

          k = 0.0000 0.0000 0.0000 (  2313 PWs)   bands (ev):

   -13.8293 -12.3258 -12.3258  -8.5328  -7.4331  -1.6524  -1.6524  -1.3411
    -0.6940  -0.0358  -0.0354   0.6657   0.6658   2.6468   2.7723   3.0564
     7.1251   9.2557  12.2648  12.2676

          k =-0.0000-0.0002 0.7870 (  2285 PWs)   bands (ev):

   -12.7233 -11.2455 -11.2454  -7.5907  -6.6475  -4.0255  -3.2707  -3.2706
    -0.9164  -0.9164  -0.5204  -0.0620   0.6603   1.2010   1.2017   4.4101
     6.6803  10.6713  10.9610  10.9618

          k = 0.0000 0.0004-1.5740 (  2294 PWs)   bands (ev):

    -9.5248  -9.5248  -8.5303  -8.5302  -7.5210  -7.5209  -4.8064  -4.8064
    -3.1616  -3.1616  -0.6618  -0.6618   3.3955   3.3955   3.5011   3.5019
     7.4876   7.4889   8.3044   8.3046

          k =-0.0068 0.6205 0.0003 (  2316 PWs)   bands (ev):

   -13.6064 -13.0696 -11.2379  -9.7873  -5.9936  -3.8919  -1.7345  -1.5613
    -0.5245  -0.0498   0.4555   1.5282   1.5290   2.1066   2.3138   2.3703
     8.7014  10.8897  11.4684  12.6577

          k =-0.0068 0.6203 0.7873 (  2297 PWs)   bands (ev):

   -12.5069 -11.9807 -10.1808  -8.7844  -5.4535  -4.2103  -3.6936  -2.5500
    -2.2551  -1.1655  -0.4291  -0.2519   0.3713   0.8062   2.6821   3.5719
     7.8720   9.3191  12.5165  12.7225

          k =-0.0068 0.6209-1.5737 (  2296 PWs)   bands (ev):

    -9.3353  -9.3352  -8.8887  -8.8886  -6.8704  -6.8704  -5.6722  -5.6722
    -2.2984  -2.2984  -1.1576  -1.1576   3.0662   3.0671   3.0849   3.0851
     7.8580   7.8582   8.1612   8.1621

          k =-0.0068 0.6207-0.7867 (  2296 PWs)   bands (ev):

   -12.5069 -11.9807 -10.1809  -8.7843  -5.4535  -4.2102  -3.6935  -2.5500
    -2.2551  -1.1655  -0.4286  -0.2518   0.3713   0.8061   2.6823   3.5716
     7.8714   9.3190  12.5162  12.7205

          k =-0.4995 0.0309-0.0001 (  2306 PWs)   bands (ev):

   -13.4494 -13.4492 -10.5141 -10.5137  -4.9267  -4.9265  -1.0288  -1.0273
    -0.3336  -0.3330   1.3703   1.3709   1.6482   1.6491   1.9568   1.9576
     9.2868   9.2885  10.0606  10.0632

          k =-0.4995 0.0307 0.7869 (  2288 PWs)   bands (ev):

   -12.3490 -12.3488  -9.4831  -9.4827  -4.7674  -4.7673  -3.2276  -3.2273
    -1.6914  -1.6907   0.2397   0.2413   0.7133   0.7138   2.8551   2.8561
     8.5546   8.5550  11.4443  11.4471

          k =-0.4994 0.0313-1.5740 (  2308 PWs)   bands (ev):

    -9.1886  -9.1884  -9.1880  -9.1878  -6.2751  -6.2747  -6.2745  -6.2741
    -1.6655  -1.6653  -1.6641  -1.6639   3.4440   3.4444   3.4454   3.4454
     7.8785   7.8785   7.8796   7.8806

          k =-0.5063 0.6515 0.0002 (  2305 PWs)   bands (ev):

   -13.6968 -12.7835 -11.7484  -9.0896  -6.9167  -2.7730  -2.1601  -0.6402
    -0.5891  -0.4157   0.0513   0.2745   1.1005   2.5525   2.6024   3.3780
     7.9722  11.3319  11.8277  12.7537

          k =-0.5063 0.6513 0.7872 (  2307 PWs)   bands (ev):

   -12.5983 -11.6940 -10.6838  -8.1170  -6.1852  -3.9246  -3.7524  -2.7511
    -1.7402  -0.8342  -0.7409  -0.2025   0.7316   0.8280   1.3029   4.6374
     7.0622  10.2800  11.5505  12.7242

          k =-0.5063 0.6518-1.5738 (  2295 PWs)   bands (ev):

    -9.4238  -9.4237  -8.6736  -8.6735  -7.2814  -7.2813  -5.1366  -5.1366
    -2.8848  -2.8848  -0.7970  -0.7970   2.8216   2.8222   3.3852   3.3858
     7.3567   7.3577   8.6456   8.6462

          k =-0.5063 0.6516-0.7868 (  2307 PWs)   bands (ev):

   -12.5984 -11.6941 -10.6838  -8.1170  -6.1851  -3.9245  -3.7524  -2.7511
    -1.7401  -0.8338  -0.7409  -0.2026   0.7316   0.8284   1.3027   4.6372
     7.0617  10.2793  11.5508  12.7226

     the Fermi energy is     4.8647 ev

!    total energy              =     -91.16409394 Ry
     Harris-Foulkes estimate   =     -91.16409394 Ry
     estimated scf accuracy    <          1.8E-09 Ry

     The total energy is the sum of the following terms:

     one-electron contribution =     -42.62509408 Ry
     hartree contribution      =      35.53004266 Ry
     xc contribution           =     -27.97280636 Ry
     ewald contribution        =     -56.09707824 Ry
     smearing contrib. (-TS)   =       0.00084208 Ry

     convergence has been achieved in   4 iterations

     Forces acting on atoms (cartesian axes, Ry/au):

     atom    1 type  1   force =     0.00005381    0.00002572   -0.00008656
     atom    2 type  1   force =     0.00003190   -0.00007990    0.00006431
     atom    3 type  1   force =    -0.00018660   -0.00013672    0.00009169
     atom    4 type  1   force =    -0.00002946    0.00006177   -0.00000072
     atom    5 type  1   force =     0.00002881   -0.00010266   -0.00003705
     atom    6 type  1   force =    -0.00000710    0.00017483   -0.00009913
     atom    7 type  1   force =    -0.00002474    0.00003733    0.00002095
     atom    8 type  1   force =     0.00013339    0.00001963    0.00004652

     Total force =     0.000406     Total SCF correction =     0.000104
     SCF correction compared to forces is large: reduce conv_thr to get better values


     Computing stress (Cartesian axis) and pressure

          total   stress  (Ry/bohr**3)                   (kbar)     P=        1.01
   0.00000641  -0.00000128  -0.00000001            0.94       -0.19       -0.00
  -0.00000128   0.00001182   0.00000002           -0.19        1.74        0.00
  -0.00000001   0.00000002   0.00000244           -0.00        0.00        0.36


     number of scf cycles    =   6
     number of bfgs steps    =   4

     enthalpy old            =     -91.1640552465 Ry
     enthalpy new            =     -91.1640573488 Ry

     CASE: enthalpy_new < enthalpy_old

     new trust radius        =       0.0022592688 bohr
     new conv_thr            =       0.0000000100 Ry

     new unit-cell volume =    538.56760 a.u.^3 (    79.80748 Ang^3 )
     density =      1.99745 g/cm^3

CELL_PARAMETERS (bohr)
  14.682952174   0.163344798   0.000343466
   0.488849915   7.883004520   0.001959459
  -0.000622178  -0.002128500   4.656233222

ATOMIC_POSITIONS (crystal)
C             0.1358957149        0.4293165680        0.0147520530
C             0.3032254718        0.2624148262        1.0146821848
C             0.3859903978        0.1796716761        0.5146722026
C             0.8031115871        0.7619871579        1.0147359011
C             0.8858455800        0.6791277390       -0.4852540763
C             1.0531103724        0.5119822857        0.5147591035
C             0.6359164360        0.9293972698        0.0146755766
C             0.5532044400        0.0123354773        0.5146680547



     Writing output data file ./pp.save/
     NEW-OLD atomic charge density approx. for the potential
     extrapolated charge   32.01508, renormalised to   32.00000

     total cpu time spent up to now is       31.3 secs

     Self-consistent Calculation

     iteration #  1     ecut=    40.00 Ry     beta= 0.50
     Davidson diagonalization with overlap
     ethr =  1.00E-06,  avg # of iterations =  2.0

     Threshold (ethr) on eigenvalues was too large:
     Diagonalizing with lowered threshold

     Davidson diagonalization with overlap
     ethr =  8.64E-09,  avg # of iterations =  2.0

     total cpu time spent up to now is       33.5 secs

     total energy              =     -91.16409077 Ry
     Harris-Foulkes estimate   =     -91.14774748 Ry
     estimated scf accuracy    <       0.00000279 Ry

     iteration #  2     ecut=    40.00 Ry     beta= 0.50
     Davidson diagonalization with overlap
     ethr =  8.73E-09,  avg # of iterations =  3.0

     total cpu time spent up to now is       35.1 secs

     total energy              =     -91.16409699 Ry
     Harris-Foulkes estimate   =     -91.16409767 Ry
     estimated scf accuracy    <       0.00000208 Ry

     iteration #  3     ecut=    40.00 Ry     beta= 0.50
     Davidson diagonalization with overlap
     ethr =  6.49E-09,  avg # of iterations =  1.0

     total cpu time spent up to now is       36.0 secs

     total energy              =     -91.16409660 Ry
     Harris-Foulkes estimate   =     -91.16409706 Ry
     estimated scf accuracy    <       0.00000076 Ry

     iteration #  4     ecut=    40.00 Ry     beta= 0.50
     Davidson diagonalization with overlap
     ethr =  2.37E-09,  avg # of iterations =  2.0

     total cpu time spent up to now is       37.3 secs

     total energy              =     -91.16409673 Ry
     Harris-Foulkes estimate   =     -91.16409673 Ry
     estimated scf accuracy    <       0.00000001 Ry

     iteration #  5     ecut=    40.00 Ry     beta= 0.50
     Davidson diagonalization with overlap
     ethr =  3.20E-11,  avg # of iterations =  2.7

     total cpu time spent up to now is       38.9 secs

     total energy              =     -91.16409673 Ry
     Harris-Foulkes estimate   =     -91.16409673 Ry
     estimated scf accuracy    <       0.00000001 Ry

     iteration #  6     ecut=    40.00 Ry     beta= 0.50
     Davidson diagonalization with overlap
     ethr =  3.20E-11,  avg # of iterations =  2.0

     total cpu time spent up to now is       40.2 secs

     End of self-consistent calculation

          k = 0.0000 0.0000 0.0000 (  2313 PWs)   bands (ev):

   -13.8335 -12.3301 -12.3301  -8.5374  -7.4376  -1.6569  -1.6568  -1.3470
    -0.6986  -0.0409  -0.0406   0.6611   0.6612   2.6422   2.7678   3.0525
     7.1209   9.2489  12.2575  12.2590

          k =-0.0000-0.0002 0.7870 (  2285 PWs)   bands (ev):

   -12.7275 -11.2499 -11.2498  -7.5952  -6.6520  -4.0299  -3.2752  -3.2751
    -0.9209  -0.9209  -0.5251  -0.0679   0.6558   1.1959   1.1965   4.4062
     6.6756  10.6647  10.9567  10.9574

          k = 0.0000 0.0004-1.5740 (  2294 PWs)   bands (ev):

    -9.5291  -9.5291  -8.5347  -8.5346  -7.5254  -7.5253  -4.8110  -4.8110
    -3.1661  -3.1661  -0.6663  -0.6662   3.3899   3.3899   3.4959   3.4966
     7.4830   7.4841   8.3004   8.3005

          k =-0.0069 0.6202 0.0003 (  2316 PWs)   bands (ev):

   -13.6108 -13.0742 -11.2421  -9.7918  -5.9979  -3.8962  -1.7387  -1.5646
    -0.5291  -0.0545   0.4511   1.5228   1.5244   2.1022   2.3092   2.3665
     8.6961  10.8855  11.4584  12.6502

          k =-0.0069 0.6200 0.7873 (  2297 PWs)   bands (ev):

   -12.5113 -11.9853 -10.1851  -8.7889  -5.4579  -4.2149  -3.6980  -2.5544
    -2.2595  -1.1701  -0.4333  -0.2553   0.3669   0.8017   2.6767   3.5682
     7.8668   9.3148  12.5112  12.7122

          k =-0.0069 0.6206-1.5737 (  2296 PWs)   bands (ev):

    -9.3398  -9.3397  -8.8933  -8.8933  -6.8747  -6.8747  -5.6767  -5.6767
    -2.3028  -2.3028  -1.1620  -1.1620   3.0620   3.0629   3.0811   3.0811
     7.8528   7.8530   8.1568   8.1575

          k =-0.0069 0.6204-0.7867 (  2296 PWs)   bands (ev):

   -12.5114 -11.9853 -10.1851  -8.7889  -5.4579  -4.2148  -3.6980  -2.5544
    -2.2595  -1.1701  -0.4328  -0.2552   0.3669   0.8017   2.6769   3.5678
     7.8662   9.3148  12.5110  12.7102

          k =-0.4995 0.0310-0.0001 (  2306 PWs)   bands (ev):

   -13.4536 -13.4534 -10.5183 -10.5182  -4.9312  -4.9311  -1.0344  -1.0331
    -0.3380  -0.3378   1.3661   1.3662   1.6438   1.6447   1.9525   1.9526
     9.2828   9.2844  10.0539  10.0563

          k =-0.4995 0.0308 0.7869 (  2288 PWs)   bands (ev):

   -12.3533 -12.3530  -9.4874  -9.4873  -4.7720  -4.7718  -3.2320  -3.2319
    -1.6957  -1.6956   0.2342   0.2355   0.7091   0.7091   2.8506   2.8515
     8.5501   8.5505  11.4381  11.4407

          k =-0.4994 0.0314-1.5740 (  2308 PWs)   bands (ev):

    -9.1928  -9.1927  -9.1924  -9.1923  -6.2793  -6.2792  -6.2789  -6.2789
    -1.6696  -1.6696  -1.6688  -1.6688   3.4386   3.4392   3.4398   3.4400
     7.8740   7.8742   7.8754   7.8760

          k =-0.5064 0.6512 0.0002 (  2305 PWs)   bands (ev):

   -13.7013 -12.7879 -11.7530  -9.0938  -6.9211  -2.7774  -2.1638  -0.6448
    -0.5935  -0.4205   0.0480   0.2700   1.0958   2.5479   2.5980   3.3727
     7.9678  11.3233  11.8226  12.7428

          k =-0.5064 0.6510 0.7872 (  2307 PWs)   bands (ev):

   -12.6029 -11.6983 -10.6884  -8.1213  -6.1897  -3.9291  -3.7569  -2.7557
    -1.7446  -0.8379  -0.7454  -0.2069   0.7271   0.8231   1.2996   4.6320
     7.0581  10.2748  11.5454  12.7169

          k =-0.5063 0.6516-1.5737 (  2295 PWs)   bands (ev):

    -9.4283  -9.4283  -8.6780  -8.6780  -7.2859  -7.2859  -5.1410  -5.1410
    -2.8892  -2.8892  -0.8014  -0.8014   2.8176   2.8183   3.3810   3.3816
     7.3523   7.3531   8.6405   8.6411

          k =-0.5064 0.6514-0.7868 (  2307 PWs)   bands (ev):

   -12.6029 -11.6984 -10.6884  -8.1213  -6.1896  -3.9291  -3.7569  -2.7557
    -1.7445  -0.8375  -0.7454  -0.2069   0.7271   0.8236   1.2994   4.6318
     7.0576  10.2742  11.5457  12.7153

     the Fermi energy is     4.8591 ev

!    total energy              =     -91.16409673 Ry
     Harris-Foulkes estimate   =     -91.16409673 Ry
     estimated scf accuracy    <          2.3E-09 Ry

     The total energy is the sum of the following terms:

     one-electron contribution =     -42.70626721 Ry
     hartree contribution      =      35.56489962 Ry
     xc contribution           =     -27.97256337 Ry
     ewald contribution        =     -56.05100919 Ry
     smearing contrib. (-TS)   =       0.00084342 Ry

     convergence has been achieved in   6 iterations

     Forces acting on atoms (cartesian axes, Ry/au):

     atom    1 type  1   force =     0.00010873    0.00017346   -0.00003627
     atom    2 type  1   force =    -0.00013272   -0.00021036    0.00002375
     atom    3 type  1   force =     0.00002102    0.00006489    0.00003935
     atom    4 type  1   force =    -0.00007120   -0.00013370   -0.00001799
     atom    5 type  1   force =     0.00008942    0.00014884   -0.00003089
     atom    6 type  1   force =    -0.00003184   -0.00006826   -0.00004401
     atom    7 type  1   force =     0.00010750    0.00016792    0.00002863
     atom    8 type  1   force =    -0.00009092   -0.00014279    0.00003743

     Total force =     0.000494     Total SCF correction =     0.000010


     Computing stress (Cartesian axis) and pressure

          total   stress  (Ry/bohr**3)                   (kbar)     P=        0.90
   0.00000578  -0.00000161   0.00000001            0.85       -0.24        0.00
  -0.00000161   0.00001085   0.00000000           -0.24        1.60        0.00
   0.00000001   0.00000000   0.00000178            0.00        0.00        0.26


     number of scf cycles    =   7
     number of bfgs steps    =   5

     enthalpy old            =     -91.1640573488 Ry
     enthalpy new            =     -91.1640601144 Ry

     CASE: enthalpy_new < enthalpy_old

     new trust radius        =       0.0033880154 bohr
     new conv_thr            =       0.0000000100 Ry

     new unit-cell volume =    538.95233 a.u.^3 (    79.86449 Ang^3 )
     density =      1.99603 g/cm^3

CELL_PARAMETERS (bohr)
  14.682845335   0.165571530   0.000351457
   0.489971157   7.888716399   0.001964935
  -0.000619947  -0.002127002   4.656268549

ATOMIC_POSITIONS (crystal)
C             0.1358985558        0.4293296516        0.0146980729
C             0.3032214070        0.2623988207        1.0147257317
C             0.3859768332        0.1795962817        0.5147244539
C             0.8031153313        0.7620040958        1.0147270339
C             0.8858343558        0.6791067763       -0.4852704820
C             1.0531247536        0.5120326692        0.5146983366
C             0.6359184573        0.9293998012        0.0146948182
C             0.5532103061        0.0123649035        0.5146930348



     Writing output data file ./pp.save/
     NEW-OLD atomic charge density approx. for the potential
     extrapolated charge   32.02284, renormalised to   32.00000

     total cpu time spent up to now is       40.3 secs

     Self-consistent Calculation

     iteration #  1     ecut=    40.00 Ry     beta= 0.50
     Davidson diagonalization with overlap
     ethr =  1.00E-06,  avg # of iterations =  2.0

     Threshold (ethr) on eigenvalues was too large:
     Diagonalizing with lowered threshold

     Davidson diagonalization with overlap
     ethr =  1.93E-08,  avg # of iterations =  1.3

     total cpu time spent up to now is       42.7 secs

     total energy              =     -91.16408691 Ry
     Harris-Foulkes estimate   =     -91.13925455 Ry
     estimated scf accuracy    <       0.00000624 Ry

     iteration #  2     ecut=    40.00 Ry     beta= 0.50
     Davidson diagonalization with overlap
     ethr =  1.95E-08,  avg # of iterations =  2.9

     total cpu time spent up to now is       44.4 secs

     total energy              =     -91.16410116 Ry
     Harris-Foulkes estimate   =     -91.16410269 Ry
     estimated scf accuracy    <       0.00000476 Ry

     iteration #  3     ecut=    40.00 Ry     beta= 0.50
     Davidson diagonalization with overlap
     ethr =  1.49E-08,  avg # of iterations =  1.0

     total cpu time spent up to now is       45.5 secs

     total energy              =     -91.16410014 Ry
     Harris-Foulkes estimate   =     -91.16410131 Ry
     estimated scf accuracy    <       0.00000176 Ry

     iteration #  4     ecut=    40.00 Ry     beta= 0.50
     Davidson diagonalization with overlap
     ethr =  5.50E-09,  avg # of iterations =  2.0

     total cpu time spent up to now is       47.0 secs

     total energy              =     -91.16410053 Ry
     Harris-Foulkes estimate   =     -91.16410057 Ry
     estimated scf accuracy    <       0.00000009 Ry

     iteration #  5     ecut=    40.00 Ry     beta= 0.50
     Davidson diagonalization with overlap
     ethr =  2.67E-10,  avg # of iterations =  1.6

     total cpu time spent up to now is       48.4 secs

     total energy              =     -91.16410053 Ry
     Harris-Foulkes estimate   =     -91.16410054 Ry
     estimated scf accuracy    <       0.00000002 Ry

     iteration #  6     ecut=    40.00 Ry     beta= 0.50
     Davidson diagonalization with overlap
     ethr =  6.32E-11,  avg # of iterations =  1.6

     total cpu time spent up to now is       49.8 secs

     End of self-consistent calculation

          k = 0.0000 0.0000 0.0000 (  2313 PWs)   bands (ev):

   -13.8397 -12.3366 -12.3366  -8.5447  -7.4444  -1.6642  -1.6642  -1.3558
    -0.7051  -0.0486  -0.0485   0.6544   0.6545   2.6351   2.7606   3.0462
     7.1144   9.2389  12.2476  12.2478

          k =-0.0000-0.0002 0.7870 (  2285 PWs)   bands (ev):

   -12.7338 -11.2564 -11.2563  -7.6025  -6.6587  -4.0364  -3.2819  -3.2818
    -0.9281  -0.9280  -0.5322  -0.0766   0.6488   1.1882   1.1887   4.3999
     6.6685  10.6549  10.9496  10.9503

          k = 0.0000 0.0004-1.5740 (  2294 PWs)   bands (ev):

    -9.5355  -9.5355  -8.5413  -8.5413  -7.5320  -7.5319  -4.8182  -4.8182
    -3.1729  -3.1729  -0.6734  -0.6734   3.3816   3.3816   3.4881   3.4890
     7.4755   7.4765   8.2939   8.2939

          k =-0.0070 0.6198 0.0003 (  2316 PWs)   bands (ev):

   -13.6174 -13.0811 -11.2486  -9.7989  -6.0046  -3.9033  -1.7449  -1.5696
    -0.5357  -0.0612   0.4438   1.5144   1.5176   2.0950   2.3022   2.3606
     8.6877  10.8783  11.4434  12.6393

          k =-0.0070 0.6196 0.7873 (  2297 PWs)   bands (ev):

   -12.5179 -11.9922 -10.1917  -8.7960  -5.4647  -4.2218  -3.7047  -2.5613
    -2.2663  -1.1771  -0.4396  -0.2604   0.3597   0.7947   2.6685   3.5623
     7.8590   9.3082  12.5031  12.6980

          k =-0.0070 0.6202-1.5737 (  2296 PWs)   bands (ev):

    -9.3464  -9.3463  -8.9001  -8.9001  -6.8814  -6.8813  -5.6838  -5.6837
    -2.3096  -2.3096  -1.1690  -1.1690   3.0557   3.0566   3.0752   3.0753
     7.8450   7.8452   8.1501   8.1508

          k =-0.0070 0.6200-0.7867 (  2296 PWs)   bands (ev):

   -12.5180 -11.9922 -10.1917  -8.7959  -5.4647  -4.2217  -3.7046  -2.5613
    -2.2663  -1.1771  -0.4391  -0.2603   0.3598   0.7947   2.6687   3.5620
     7.8584   9.3082  12.5029  12.6960

          k =-0.4995 0.0310-0.0001 (  2306 PWs)   bands (ev):

   -13.4600 -13.4596 -10.5253 -10.5249  -4.9385  -4.9381  -1.0428  -1.0417
    -0.3446  -0.3442   1.3586   1.3592   1.6369   1.6377   1.9453   1.9460
     9.2764   9.2780  10.0439  10.0461

          k =-0.4995 0.0308 0.7869 (  2288 PWs)   bands (ev):

   -12.3597 -12.3593  -9.4944  -9.4939  -4.7789  -4.7785  -3.2389  -3.2386
    -1.7028  -1.7022   0.2259   0.2269   0.7017   0.7022   2.8437   2.8445
     8.5431   8.5436  11.4287  11.4310

          k =-0.4995 0.0314-1.5740 (  2308 PWs)   bands (ev):

    -9.1992  -9.1992  -9.1988  -9.1988  -6.2862  -6.2861  -6.2858  -6.2857
    -1.6765  -1.6764  -1.6761  -1.6760   3.4307   3.4312   3.4316   3.4320
     7.8669   7.8674   7.8683   7.8687

          k =-0.5065 0.6508 0.0002 (  2305 PWs)   bands (ev):

   -13.7081 -12.7944 -11.7600  -9.1006  -6.9279  -2.7845  -2.1692  -0.6514
    -0.6006  -0.4278   0.0430   0.2633   1.0890   2.5410   2.5907   3.3644
     7.9608  11.3104  11.8143  12.7267

          k =-0.5065 0.6506 0.7872 (  2307 PWs)   bands (ev):

   -12.6097 -11.7049 -10.6954  -8.1280  -6.1965  -3.9358  -3.7636  -2.7626
    -1.7515  -0.8434  -0.7523  -0.2140   0.7201   0.8159   1.2944   4.6237
     7.0517  10.2669  11.5382  12.7050

          k =-0.5064 0.6512-1.5737 (  2295 PWs)   bands (ev):

    -9.4351  -9.4350  -8.6847  -8.6846  -7.2928  -7.2928  -5.1479  -5.1479
    -2.8960  -2.8960  -0.8084  -0.8084   2.8118   2.8124   3.3746   3.3751
     7.3458   7.3465   8.6325   8.6331

          k =-0.5065 0.6510-0.7868 (  2307 PWs)   bands (ev):

   -12.6097 -11.7049 -10.6954  -8.1280  -6.1965  -3.9358  -3.7636  -2.7626
    -1.7515  -0.8430  -0.7523  -0.2140   0.7201   0.8164   1.2942   4.6235
     7.0512  10.2663  11.5385  12.7034

     the Fermi energy is     4.8505 ev

!    total energy              =     -91.16410053 Ry
     Harris-Foulkes estimate   =     -91.16410053 Ry
     estimated scf accuracy    <          5.9E-09 Ry

     The total energy is the sum of the following terms:

     one-electron contribution =     -42.82504587 Ry
     hartree contribution      =      35.61578606 Ry
     xc contribution           =     -27.97208864 Ry
     ewald contribution        =     -55.98359727 Ry
     smearing contrib. (-TS)   =       0.00084519 Ry

     convergence has been achieved in   6 iterations

     Forces acting on atoms (cartesian axes, Ry/au):

     atom    1 type  1   force =     0.00017180    0.00020548    0.00002584
     atom    2 type  1   force =    -0.00015586   -0.00030312   -0.00002945
     atom    3 type  1   force =     0.00002380    0.00028638   -0.00002192
     atom    4 type  1   force =    -0.00015589   -0.00019591   -0.00001582
     atom    5 type  1   force =     0.00028479    0.00023819   -0.00003414
     atom    6 type  1   force =    -0.00018327   -0.00015627    0.00002616
     atom    7 type  1   force =     0.00012205    0.00024541    0.00001808
     atom    8 type  1   force =    -0.00010742   -0.00032017    0.00003125

     Total force =     0.000851     Total SCF correction =     0.000011


     Computing stress (Cartesian axis) and pressure

          total   stress  (Ry/bohr**3)                   (kbar)     P=        0.72
   0.00000379  -0.00000100  -0.00000001            0.56       -0.15       -0.00
  -0.00000100   0.00000974   0.00000001           -0.15        1.43        0.00
  -0.00000001   0.00000001   0.00000115           -0.00        0.00        0.17


     number of scf cycles    =   8
     number of bfgs steps    =   6

     enthalpy old            =     -91.1640601144 Ry
     enthalpy new            =     -91.1640638910 Ry

     CASE: enthalpy_new < enthalpy_old

     new trust radius        =       0.0050800642 bohr
     new conv_thr            =       0.0000000100 Ry

     new unit-cell volume =    539.50878 a.u.^3 (    79.94695 Ang^3 )
     density =      1.99397 g/cm^3

CELL_PARAMETERS (bohr)
  14.682274837   0.169000399   0.000352538
   0.491687159   7.897277446   0.001975865
  -0.000620106  -0.002122904   4.656279774

ATOMIC_POSITIONS (crystal)
C             0.1359083507        0.4293559525        0.0146324265
C             0.3032148832        0.2623567224        1.0147775879
C             0.3859530506        0.1795202669        0.5147880209
C             0.8031137086        0.7620190332        1.0147146026
C             0.8858346887        0.6790890890       -0.4852970426
C             1.0531331919        0.5120954174        0.5146244339
C             0.6359214431        0.9294185841        0.0147210074
C             0.5532206832        0.0123779344        0.5147299635



     Writing output data file ./pp.save/
     NEW-OLD atomic charge density approx. for the potential
     extrapolated charge   32.03300, renormalised to   32.00000

     total cpu time spent up to now is       49.9 secs

     Self-consistent Calculation

     iteration #  1     ecut=    40.00 Ry     beta= 0.50
     Davidson diagonalization with overlap
     ethr =  1.00E-06,  avg # of iterations =  2.0

     Threshold (ethr) on eigenvalues was too large:
     Diagonalizing with lowered threshold

     Davidson diagonalization with overlap
     ethr =  3.95E-08,  avg # of iterations =  1.5

     total cpu time spent up to now is       52.8 secs

     total energy              =     -91.16407753 Ry
     Harris-Foulkes estimate   =     -91.12804464 Ry
     estimated scf accuracy    <       0.00001276 Ry

     iteration #  2     ecut=    40.00 Ry     beta= 0.50
     Davidson diagonalization with overlap
     ethr =  3.99E-08,  avg # of iterations =  2.9

     total cpu time spent up to now is       54.9 secs

     total energy              =     -91.16410721 Ry
     Harris-Foulkes estimate   =     -91.16411043 Ry
     estimated scf accuracy    <       0.00001004 Ry

     iteration #  3     ecut=    40.00 Ry     beta= 0.50
     Davidson diagonalization with overlap
     ethr =  3.14E-08,  avg # of iterations =  1.0

     total cpu time spent up to now is       56.2 secs

     total energy              =     -91.16410502 Ry
     Harris-Foulkes estimate   =     -91.16410751 Ry
     estimated scf accuracy    <       0.00000375 Ry

     iteration #  4     ecut=    40.00 Ry     beta= 0.50
     Davidson diagonalization with overlap
     ethr =  1.17E-08,  avg # of iterations =  2.0

     total cpu time spent up to now is       58.1 secs

     total energy              =     -91.16410587 Ry
     Harris-Foulkes estimate   =     -91.16410593 Ry
     estimated scf accuracy    <       0.00000018 Ry

     iteration #  5     ecut=    40.00 Ry     beta= 0.50
     Davidson diagonalization with overlap
     ethr =  5.62E-10,  avg # of iterations =  1.2

     total cpu time spent up to now is       59.5 secs

     total energy              =     -91.16410586 Ry
     Harris-Foulkes estimate   =     -91.16410588 Ry
     estimated scf accuracy    <       0.00000005 Ry

     iteration #  6     ecut=    40.00 Ry     beta= 0.50
     Davidson diagonalization with overlap
     ethr =  1.65E-10,  avg # of iterations =  1.0

     total cpu time spent up to now is       60.8 secs

     total energy              =     -91.16410585 Ry
     Harris-Foulkes estimate   =     -91.16410586 Ry
     estimated scf accuracy    <       0.00000002 Ry

     iteration #  7     ecut=    40.00 Ry     beta= 0.50
     Davidson diagonalization with overlap
     ethr =  5.51E-11,  avg # of iterations =  2.0

     total cpu time spent up to now is       62.8 secs

     End of self-consistent calculation

          k = 0.0000 0.0000 0.0000 (  2313 PWs)   bands (ev):

   -13.8495 -12.3467 -12.3467  -8.5557  -7.4549  -1.6751  -1.6751  -1.3691
    -0.7152  -0.0605  -0.0601   0.6441   0.6441   2.6245   2.7497   3.0370
     7.1049   9.2242  12.2319  12.2342

          k =-0.0000-0.0002 0.7870 (  2285 PWs)   bands (ev):

   -12.7436 -11.2665 -11.2665  -7.6134  -6.6692  -4.0465  -3.2922  -3.2922
    -0.9389  -0.9389  -0.5429  -0.0898   0.6381   1.1764   1.1770   4.3905
     6.6580  10.6406  10.9390  10.9398

          k = 0.0000 0.0004-1.5740 (  2294 PWs)   bands (ev):

    -9.5454  -9.5454  -8.5515  -8.5514  -7.5422  -7.5421  -4.8290  -4.8290
    -3.1834  -3.1834  -0.6842  -0.6842   3.3691   3.3691   3.4766   3.4774
     7.4639   7.4652   8.2843   8.2845

          k =-0.0071 0.6191 0.0003 (  2316 PWs)   bands (ev):

   -13.6277 -13.0918 -11.2587  -9.8097  -6.0150  -3.9139  -1.7544  -1.5773
    -0.5460  -0.0715   0.4330   1.5020   1.5072   2.0842   2.2917   2.3520
     8.6753  10.8676  11.4213  12.6237

          k =-0.0071 0.6189 0.7873 (  2297 PWs)   bands (ev):

   -12.5283 -12.0029 -10.2018  -8.8067  -5.4750  -4.2323  -3.7149  -2.5719
    -2.2766  -1.1877  -0.4491  -0.2682   0.3490   0.7841   2.6563   3.5536
     7.8474   9.2985  12.4913  12.6776

          k =-0.0071 0.6195-1.5737 (  2296 PWs)   bands (ev):

    -9.3567  -9.3566  -8.9107  -8.9107  -6.8916  -6.8915  -5.6945  -5.6944
    -2.3200  -2.3200  -1.1796  -1.1796   3.0461   3.0470   3.0664   3.0665
     7.8335   7.8336   8.1403   8.1411

          k =-0.0071 0.6193-0.7867 (  2296 PWs)   bands (ev):

   -12.5283 -12.0029 -10.2018  -8.8067  -5.4750  -4.2323  -3.7149  -2.5718
    -2.2766  -1.1878  -0.4486  -0.2681   0.3490   0.7841   2.6565   3.5533
     7.8468   9.2985  12.4910  12.6756

          k =-0.4995 0.0311-0.0001 (  2306 PWs)   bands (ev):

   -13.4699 -13.4694 -10.5358 -10.5354  -4.9493  -4.9490  -1.0555  -1.0548
    -0.3550  -0.3542   1.3476   1.3483   1.6265   1.6274   1.9348   1.9356
     9.2675   9.2687  10.0293  10.0312

          k =-0.4995 0.0309 0.7869 (  2288 PWs)   bands (ev):

   -12.3696 -12.3691  -9.5048  -9.5045  -4.7894  -4.7890  -3.2494  -3.2489
[...]
     atom    7 type  1   force =    -0.00111246    0.00326706    0.00113309
     atom    8 type  1   force =    -0.00155226   -0.00146240   -0.00099188

     Total force =     0.014373     Total SCF correction =     0.000140


     Computing stress (Cartesian axis) and pressure

          total   stress  (Ry/bohr**3)                   (kbar)     P=        1.68
   0.00001884  -0.00002252   0.00000305            2.77       -3.31        0.45
  -0.00002252   0.00001892  -0.00000281           -3.31        2.78       -0.41
   0.00000305  -0.00000281  -0.00000345            0.45       -0.41       -0.51


     number of scf cycles    =  47
     number of bfgs steps    =  41

     enthalpy old            =     -91.1657896424 Ry
     enthalpy new            =     -91.1659775475 Ry

     CASE: enthalpy_new < enthalpy_old

     new trust radius        =       0.0089779425 bohr
     new conv_thr            =       0.0000000188 Ry

     new unit-cell volume =    554.02371 a.u.^3 (    82.09784 Ang^3 )
     density =      1.94173 g/cm^3

CELL_PARAMETERS (bohr)
  12.788552955  -0.513880666  -0.002869832
  -0.039275345   9.301586020   0.000619072
  -0.002429753  -0.004538077   4.658259233

ATOMIC_POSITIONS (crystal)
C             0.1355470169        0.4284916433        0.0143810358
C             0.3057038666        0.2662055407        1.0149545356
C             0.3890553670        0.1840062106        0.5150453377
C             0.8008614958        0.7586178343        1.0146455172
C             0.8826837389        0.6745537014       -0.4855523340
C             1.0509623970        0.5091933243        0.5143450752
C             0.6363162498        0.9302621783        0.0148622763
C             0.5551698680        0.0149025672        0.5150095562



     Writing output data file ./pp.save/
     NEW-OLD atomic charge density approx. for the potential
     extrapolated charge   32.00745, renormalised to   32.00000

     total cpu time spent up to now is     2135.3 secs

     Self-consistent Calculation

     iteration #  1     ecut=    40.00 Ry     beta= 0.50
     Davidson diagonalization with overlap
     ethr =  1.00E-06,  avg # of iterations =  3.6

     Threshold (ethr) on eigenvalues was too large:
     Diagonalizing with lowered threshold

     Davidson diagonalization with overlap
     ethr =  7.62E-08,  avg # of iterations =  1.5

     total cpu time spent up to now is     2163.1 secs

     total energy              =     -91.16611120 Ry
     Harris-Foulkes estimate   =     -91.15699455 Ry
     estimated scf accuracy    <       0.00002438 Ry

     iteration #  2     ecut=    40.00 Ry     beta= 0.50
     Davidson diagonalization with overlap
     ethr =  7.62E-08,  avg # of iterations =  2.0

     total cpu time spent up to now is     2176.0 secs

     total energy              =     -91.16611609 Ry
     Harris-Foulkes estimate   =     -91.16611665 Ry
     estimated scf accuracy    <       0.00000338 Ry

     iteration #  3     ecut=    40.00 Ry     beta= 0.50
     Davidson diagonalization with overlap
     ethr =  1.05E-08,  avg # of iterations =  2.0

     total cpu time spent up to now is     2187.6 secs

     total energy              =     -91.16611640 Ry
     Harris-Foulkes estimate   =     -91.16611636 Ry
     estimated scf accuracy    <       0.00000053 Ry

     iteration #  4     ecut=    40.00 Ry     beta= 0.50
     Davidson diagonalization with overlap
     ethr =  1.64E-09,  avg # of iterations =  2.0

     total cpu time spent up to now is     2199.8 secs

     total energy              =     -91.16611646 Ry
     Harris-Foulkes estimate   =     -91.16611648 Ry
     estimated scf accuracy    <       0.00000008 Ry

     iteration #  5     ecut=    40.00 Ry     beta= 0.50
     Davidson diagonalization with overlap
     ethr =  2.40E-10,  avg # of iterations =  2.0

     total cpu time spent up to now is     2212.0 secs

     End of self-consistent calculation

          k = 0.0000 0.0000 0.0000 (  2313 PWs)   bands (ev):

   -14.0988 -12.5713 -12.5686  -8.8344  -7.7363  -1.9602  -1.9563  -1.7047
    -0.9829  -0.6686  -0.6661   0.3804   0.3848   2.3602   2.4886   2.9837
     7.0926   8.8489  12.7220  12.7401

          k = 0.0002-0.0001 0.7866 (  2285 PWs)   bands (ev):

   -12.9947 -11.4949 -11.4922  -7.8902  -6.9487  -4.3093  -3.5486  -3.5447
    -1.2135  -1.2108  -0.8105  -0.4246   0.3670   0.5899   0.5911   4.3275
     6.5026  10.2729  10.6107  10.6140

          k =-0.0003 0.0001-1.5733 (  2294 PWs)   bands (ev):

    -9.8026  -9.8018  -8.7897  -8.7863  -7.7818  -7.7792  -5.1016  -5.1013
    -3.4587  -3.4579  -0.9554  -0.9535   2.9567   2.9579   3.0579   3.0596
     6.8997   6.9056   8.1854   8.1857

          k = 0.0211 0.5254 0.0005 (  2316 PWs)   bands (ev):

   -13.9018 -13.3653 -11.4983 -10.1099  -6.2371  -4.1537  -1.8829  -1.7385
    -0.8180  -0.3401   0.1624   1.0644   1.2453   1.8281   2.0264   2.4710
     8.1114  10.3317  10.3660  12.6585

          k = 0.0213 0.5253 0.7872 (  2297 PWs)   bands (ev):

   -12.8023 -12.2762 -10.4442  -9.1037  -5.7154  -4.4960  -3.9736  -2.8227
    -2.5346  -1.4632  -0.5861  -0.4364   0.0867   0.5303   2.2367   3.6629
     7.3918   8.9811  11.6866  12.1640

          k = 0.0208 0.5255-1.5728 (  2296 PWs)   bands (ev):

    -9.6320  -9.6314  -9.1837  -9.1817  -7.1407  -7.1396  -5.9797  -5.9789
    -2.5631  -2.5619  -1.4333  -1.4317   2.8307   2.8353   2.9059   2.9106
     7.4588   7.4627   8.0796   8.0806

          k = 0.0209 0.5254-0.7861 (  2296 PWs)   bands (ev):

   -12.8024 -12.2762 -10.4438  -9.1040  -5.7137  -4.4983  -3.9747  -2.8208
    -2.5334  -1.4644  -0.5836  -0.4375   0.0851   0.5317   2.2362   3.6609
     7.3915   8.9809  11.6775  12.1668

          k =-0.5732-0.0024-0.0003 (  2306 PWs)   bands (ev):

   -13.7248 -13.6886 -10.7781 -10.7763  -5.2563  -5.2364  -1.5383  -1.5267
    -0.6472  -0.5917   1.0670   1.0919   1.2229   1.2300   1.6534   1.6920
     9.4068   9.4325  10.1443  10.2200

          k =-0.5730-0.0025 0.7863 (  2288 PWs)   bands (ev):

   -12.6274 -12.5907  -9.7502  -9.7473  -5.0795  -5.0537  -3.5396  -3.5010
    -1.9810  -1.9613  -0.2583  -0.2469   0.4175   0.4327   2.4277   2.4317
     8.4255   8.4378  11.4996  11.5729

          k =-0.5735-0.0023-1.5736 (  2308 PWs)   bands (ev):

    -9.4770  -9.4733  -9.4406  -9.4347  -6.5560  -6.5512  -6.5414  -6.5378
    -1.9711  -1.9698  -1.9609  -1.9590   2.9783   2.9866   3.0114   3.0183
     7.4971   7.5017   7.5218   7.5255

          k =-0.5521 0.5229 0.0002 (  2305 PWs)   bands (ev):

   -13.9823 -13.0750 -12.0703  -9.3243  -7.2086  -3.0475  -2.4311  -0.9322
    -0.8494  -0.5418  -0.0147   0.1414   0.8076   2.2722   2.3122   2.7743
     7.6514  10.2079  11.4549  12.3719

          k =-0.5519 0.5229 0.7869 (  2307 PWs)   bands (ev):

   -12.8846 -11.9857 -11.0033  -8.3574  -6.4780  -4.2141  -4.0415  -3.0511
    -2.0149  -1.1080  -1.0109  -0.4703   0.4420   0.6922   1.3686   4.0246
     6.8345  10.0065  11.3672  11.6373

          k =-0.5524 0.5230-1.5731 (  2295 PWs)   bands (ev):

    -9.7123  -9.7116  -8.9724  -8.9699  -7.5881  -7.5859  -5.3919  -5.3915
    -3.1721  -3.1711  -1.0731  -1.0713   2.5278   2.5300   3.2712   3.2754
     7.3178   7.3205   8.1632   8.1653

          k =-0.5522 0.5230-0.7864 (  2307 PWs)   bands (ev):

   -12.8847 -11.9856 -11.0032  -8.3569  -6.4790  -4.2131  -4.0398  -3.0527
    -2.0168  -1.1068  -1.0102  -0.4685   0.4411   0.6934   1.3658   4.0243
     6.8326  10.0077  11.3689  11.6353

     the Fermi energy is     4.5087 ev

!    total energy              =     -91.16611647 Ry
     Harris-Foulkes estimate   =     -91.16611648 Ry
     estimated scf accuracy    <       0.00000001 Ry

     The total energy is the sum of the following terms:

     one-electron contribution =     -47.88098958 Ry
     hartree contribution      =      37.82068568 Ry
     xc contribution           =     -27.96751261 Ry
     ewald contribution        =     -53.13916780 Ry
     smearing contrib. (-TS)   =       0.00086783 Ry

     convergence has been achieved in   5 iterations

     Forces acting on atoms (cartesian axes, Ry/au):

     atom    1 type  1   force =    -0.00118540    0.00163911    0.00043839
     atom    2 type  1   force =    -0.00303670   -0.00052683   -0.00018344
     atom    3 type  1   force =    -0.00253230    0.00092447   -0.00036364
     atom    4 type  1   force =    -0.00033378    0.00050540   -0.00062534
     atom    5 type  1   force =     0.00474628   -0.00091601    0.00077361
     atom    6 type  1   force =     0.00424207   -0.00211532    0.00018761
     atom    7 type  1   force =     0.00264401   -0.00278205    0.00040184
     atom    8 type  1   force =    -0.00454417    0.00327124   -0.00062903

     Total force =     0.010728     Total SCF correction =     0.000155


     Computing stress (Cartesian axis) and pressure

          total   stress  (Ry/bohr**3)                   (kbar)     P=        1.11
   0.00000756  -0.00001240   0.00000146            1.11       -1.82        0.21
  -0.00001240   0.00001118  -0.00000124           -1.82        1.64       -0.18
   0.00000146  -0.00000124   0.00000392            0.21       -0.18        0.58


     number of scf cycles    =  48
     number of bfgs steps    =  42

     enthalpy old            =     -91.1659775475 Ry
     enthalpy new            =     -91.1660788116 Ry

     CASE: enthalpy_new < enthalpy_old

     new trust radius        =       0.0146280331 bohr
     new conv_thr            =       0.0000000101 Ry

     new unit-cell volume =    553.37455 a.u.^3 (    82.00165 Ang^3 )
     density =      1.94401 g/cm^3

CELL_PARAMETERS (bohr)
  12.754994724  -0.534435053  -0.002862993
  -0.053688087   9.315221471   0.000106967
  -0.002525352  -0.005004140   4.658548854

ATOMIC_POSITIONS (crystal)
C             0.1355660579        0.4286433921        0.0147518935
C             0.3054236204        0.2660523152        1.0146680921
C             0.3889997379        0.1842887783        0.5147377931
C             0.8007377193        0.7583860712        1.0145359902
C             0.8830262602        0.6745933500       -0.4853921074
C             1.0511272563        0.5089741330        0.5146683186
C             0.6364633841        0.9300896860        0.0148918273
C             0.5549559639        0.0152052742        0.5148291928



     Writing output data file ./pp.save/
     NEW-OLD atomic charge density approx. for the potential
     extrapolated charge   31.96246, renormalised to   32.00000

     total cpu time spent up to now is     2212.4 secs

     Self-consistent Calculation

     iteration #  1     ecut=    40.00 Ry     beta= 0.50
     Davidson diagonalization with overlap
     ethr =  1.00E-06,  avg # of iterations =  4.0

     Threshold (ethr) on eigenvalues was too large:
     Diagonalizing with lowered threshold

     Davidson diagonalization with overlap
     ethr =  7.86E-08,  avg # of iterations =  1.7

     total cpu time spent up to now is     2242.2 secs

     total energy              =     -91.16613753 Ry
     Harris-Foulkes estimate   =     -91.21182835 Ry
     estimated scf accuracy    <       0.00002536 Ry

     iteration #  2     ecut=    40.00 Ry     beta= 0.50
     Davidson diagonalization with overlap
     ethr =  7.93E-08,  avg # of iterations =  3.0

     total cpu time spent up to now is     2258.1 secs

     total energy              =     -91.16617776 Ry
     Harris-Foulkes estimate   =     -91.16618316 Ry
     estimated scf accuracy    <       0.00001733 Ry

     iteration #  3     ecut=    40.00 Ry     beta= 0.50
     Davidson diagonalization with overlap
     ethr =  5.42E-08,  avg # of iterations =  1.0

     total cpu time spent up to now is     2267.2 secs

     total energy              =     -91.16617550 Ry
     Harris-Foulkes estimate   =     -91.16617846 Ry
     estimated scf accuracy    <       0.00000581 Ry

     iteration #  4     ecut=    40.00 Ry     beta= 0.50
     Davidson diagonalization with overlap
     ethr =  1.82E-08,  avg # of iterations =  2.0

     total cpu time spent up to now is     2280.6 secs

     total energy              =     -91.16617636 Ry
     Harris-Foulkes estimate   =     -91.16617643 Ry
     estimated scf accuracy    <       0.00000028 Ry

     iteration #  5     ecut=    40.00 Ry     beta= 0.50
     Davidson diagonalization with overlap
     ethr =  8.68E-10,  avg # of iterations =  2.1

     total cpu time spent up to now is     2294.1 secs

     total energy              =     -91.16617638 Ry
     Harris-Foulkes estimate   =     -91.16617644 Ry
     estimated scf accuracy    <       0.00000011 Ry

     iteration #  6     ecut=    40.00 Ry     beta= 0.50
     Davidson diagonalization with overlap
     ethr =  3.48E-10,  avg # of iterations =  2.0

     total cpu time spent up to now is     2306.5 secs

     End of self-consistent calculation

          k = 0.0000 0.0000 0.0000 (  2313 PWs)   bands (ev):

   -14.0834 -12.5552 -12.5540  -8.8219  -7.7283  -1.9545  -1.9531  -1.6854
    -0.9610  -0.6604  -0.6588   0.4027   0.4051   2.3830   2.4863   3.0056
     7.1018   8.8687  12.7395  12.7501

          k = 0.0002-0.0000 0.7866 (  2285 PWs)   bands (ev):

   -12.9792 -11.4789 -11.4776  -7.8770  -6.9416  -4.2890  -3.5334  -3.5305
    -1.2037  -1.2011  -0.7916  -0.4059   0.3702   0.5963   0.5992   4.3486
     6.5115  10.2919  10.6159  10.6184

          k =-0.0004 0.0000-1.5732 (  2294 PWs)   bands (ev):

    -9.7869  -9.7865  -8.7756  -8.7737  -7.7637  -7.7607  -5.0861  -5.0859
    -3.4505  -3.4498  -0.9471  -0.9455   2.9610   2.9666   3.0730   3.0740
     6.9101   6.9110   8.2027   8.2052

          k = 0.0220 0.5246 0.0006 (  2316 PWs)   bands (ev):

   -13.8861 -13.3498 -11.4844 -10.0978  -6.2282  -4.1465  -1.8632  -1.7280
    -0.7954  -0.3199   0.1637   1.0751   1.2675   1.8268   2.0485   2.4911
     8.1123  10.3494  10.3629  12.6919

          k = 0.0222 0.5246 0.7872 (  2297 PWs)   bands (ev):

   -12.7864 -12.2608 -10.4300  -9.0918  -5.7042  -4.4853  -3.9562  -2.8063
    -2.5176  -1.4485  -0.5674  -0.4264   0.0921   0.5378   2.2479   3.6806
     7.3989   8.9834  11.7060  12.1737

          k = 0.0216 0.5246-1.5726 (  2296 PWs)   bands (ev):

    -9.6164  -9.6156  -9.1687  -9.1676  -7.1248  -7.1230  -5.9651  -5.9642
    -2.5538  -2.5526  -1.4245  -1.4229   2.8423   2.8451   2.9182   2.9229
     7.4714   7.4725   8.0960   8.0995

          k = 0.0218 0.5246-0.7860 (  2296 PWs)   bands (ev):

   -12.7867 -12.2606 -10.4301  -9.0913  -5.7061  -4.4828  -3.9543  -2.8091
    -2.5196  -1.4470  -0.5651  -0.4268   0.0944   0.5358   2.2451   3.6808
     7.3953   8.9871  11.6952  12.1750

          k =-0.5747-0.0033-0.0003 (  2306 PWs)   bands (ev):

   -13.7016 -13.6807 -10.7673 -10.7598  -5.2465  -5.2323  -1.5310  -1.5061
    -0.6088  -0.5873   1.0797   1.0821   1.2343   1.2405   1.6928   1.6970
     9.4270   9.4334  10.1766  10.2558

          k =-0.5745-0.0033 0.7863 (  2288 PWs)   bands (ev):

   -12.6039 -12.5831  -9.7386  -9.7314  -5.0651  -5.0478  -3.5121  -3.4955
    -1.9566  -1.9539  -0.2510  -0.2275   0.4299   0.4338   2.4374   2.4439
     8.4402   8.4442  11.5247  11.6034

          k =-0.5751-0.0033-1.5735 (  2308 PWs)   bands (ev):

    -9.4537  -9.4498  -9.4323  -9.4292  -6.5346  -6.5326  -6.5293  -6.5271
    -1.9634  -1.9606  -1.9516  -1.9508   2.9881   2.9985   3.0189   3.0308
     7.5128   7.5193   7.5308   7.5340

          k =-0.5527 0.5213 0.0003 (  2305 PWs)   bands (ev):

   -13.9657 -13.0608 -12.0566  -9.3109  -7.1996  -3.0424  -2.4197  -0.9099
    -0.8461  -0.5219   0.0060   0.1613   0.8291   2.2946   2.3105   2.7816
     7.6492  10.2224  11.4592  12.4113

          k =-0.5526 0.5213 0.7869 (  2307 PWs)   bands (ev):

   -12.8680 -11.9713 -10.9897  -8.3434  -6.4703  -4.1917  -4.0272  -3.0379
    -2.0060  -1.0973  -0.9916  -0.4597   0.4454   0.7114   1.3864   4.0323
     6.8369  10.0202  11.3822  11.6454

          k =-0.5531 0.5213-1.5729 (  2295 PWs)   bands (ev):

    -9.6958  -9.6953  -8.9590  -8.9574  -7.5713  -7.5695  -5.3764  -5.3754
    -3.1631  -3.1621  -1.0648  -1.0632   2.5362   2.5392   3.2868   3.2881
     7.3369   7.3437   8.1706   8.1734

          k =-0.5529 0.5213-0.7863 (  2307 PWs)   bands (ev):

   -12.8681 -11.9715 -10.9893  -8.3437  -6.4691  -4.1923  -4.0296  -3.0362
    -2.0035  -1.0957  -0.9929  -0.4621   0.4467   0.7114   1.3851   4.0299
     6.8379  10.0179  11.3870  11.6428

     the Fermi energy is     4.5368 ev

!    total energy              =     -91.16617639 Ry
     Harris-Foulkes estimate   =     -91.16617640 Ry
     estimated scf accuracy    <          6.7E-09 Ry

     The total energy is the sum of the following terms:

     one-electron contribution =     -47.56110955 Ry
     hartree contribution      =      37.67472493 Ry
     xc contribution           =     -27.96424814 Ry
     ewald contribution        =     -53.31635321 Ry
     smearing contrib. (-TS)   =       0.00080957 Ry

     convergence has been achieved in   6 iterations

     Forces acting on atoms (cartesian axes, Ry/au):

     atom    1 type  1   force =    -0.00037001   -0.00023527   -0.00042536
     atom    2 type  1   force =    -0.00123111    0.00002814    0.00038662
     atom    3 type  1   force =    -0.00323195    0.00000487   -0.00024422
     atom    4 type  1   force =     0.00296936   -0.00026273    0.00065982
     atom    5 type  1   force =     0.00162836   -0.00041773   -0.00031915
     atom    6 type  1   force =     0.00229956    0.00047372    0.00032051
     atom    7 type  1   force =    -0.00197207    0.00058313   -0.00064013
     atom    8 type  1   force =    -0.00009213   -0.00017413    0.00026191

     Total force =     0.005929     Total SCF correction =     0.000061


     Computing stress (Cartesian axis) and pressure

          total   stress  (Ry/bohr**3)                   (kbar)     P=       -0.25
   0.00000080  -0.00000300  -0.00000189            0.12       -0.44       -0.28
  -0.00000300   0.00000390   0.00000152           -0.44        0.57        0.22
  -0.00000189   0.00000152  -0.00000982           -0.28        0.22       -1.44


     number of scf cycles    =  49
     number of bfgs steps    =  43

     enthalpy old            =     -91.1660788116 Ry
     enthalpy new            =     -91.1661387771 Ry

     CASE: enthalpy_new < enthalpy_old

     new trust radius        =       0.0155722207 bohr
     new conv_thr            =       0.0000000100 Ry

     new unit-cell volume =    554.32385 a.u.^3 (    82.14232 Ang^3 )
     density =      1.94068 g/cm^3

CELL_PARAMETERS (bohr)
  12.792238204  -0.516178086  -0.003036422
  -0.040434989   9.305371649   0.000185107
  -0.002568123  -0.004933099   4.657571232

ATOMIC_POSITIONS (crystal)
C             0.1355803460        0.4287339467        0.0147724546
C             0.3051166631        0.2658413127        1.0146681534
C             0.3886360276        0.1842204185        0.5146411547
C             0.8009691335        0.7583646803        1.0145430851
C             0.8834025354        0.6746908043       -0.4853821759
C             1.0514281133        0.5090590942        0.5147604858
C             0.6363885322        0.9300910022        0.0148634228
C             0.5547786489        0.0152317410        0.5148244195



     Writing output data file ./pp.save/
     NEW-OLD atomic charge density approx. for the potential
     extrapolated charge   32.05480, renormalised to   32.00000

     total cpu time spent up to now is     2307.0 secs

     Self-consistent Calculation

     iteration #  1     ecut=    40.00 Ry     beta= 0.50
     Davidson diagonalization with overlap
     ethr =  1.00E-06,  avg # of iterations =  3.9

     total cpu time spent up to now is     2327.1 secs

     total energy              =     -91.16611171 Ry
     Harris-Foulkes estimate   =     -91.09899661 Ry
     estimated scf accuracy    <       0.00005662 Ry

     iteration #  2     ecut=    40.00 Ry     beta= 0.50
     Davidson diagonalization with overlap
