
     Program PWSCF v.6.5 starts on  7Jul2022 at 22:12:47 

     This program is part of the open-source Quantum ESPRESSO suite
     for quantum simulation of materials; please cite
         "P. Giannozzi et al., J. Phys.:Condens. Matter 21 395502 (2009);
         "P. Giannozzi et al., J. Phys.:Condens. Matter 29 465901 (2017);
          URL http://www.quantum-espresso.org", 
     in publications or presentations arising from this work. More details at
     http://www.quantum-espresso.org/quote

     Parallel version (MPI), running on    96 processors

     MPI processes distributed on     2 nodes
     R & G space division:  proc/nbgrp/npool/nimage =      96
     Waiting for input...
     Reading input from standard input
     Message from routine read_cards :
     DEPRECATED: no units specified in CELL_PARAMETERS card

     Current dimensions of program PWSCF are:
     Max number of different atomic species (ntypx) = 10
     Max number of k-points (npk) =  40000
     Max angular momentum in pseudopotentials (lmaxx) =  3

     Subspace diagonalization in iterative solution of the eigenvalue problem:
     one sub-group per band group will be used
     scalapack distributed-memory algorithm (size of sub-group:  9*  9 procs)

 
     Parallelization info
     --------------------
     sticks:   dense  smooth     PW     G-vecs:    dense   smooth      PW
     Min          16      16      5                  206      206      37
     Max          17      17      7                  209      209      38
     Sum        1583    1583    509                19869    19869    3563
 


     bravais-lattice index     =            0
     lattice parameter (alat)  =      15.4182  a.u.
     unit-cell volume          =     581.1702 (a.u.)^3
     number of atoms/cell      =            8
     number of atomic types    =            1
     number of electrons       =        32.00
     number of Kohn-Sham states=           20
     kinetic-energy cutoff     =      40.0000  Ry
     charge density cutoff     =     160.0000  Ry
     convergence threshold     =      1.0E-06
     mixing beta               =       0.5000
     number of iterations used =            8  plain     mixing
     Exchange-correlation=  SLA  PW   PBE  PBE
                           (   1   4   3   4   0   0   0)
     nstep                     =          250


     celldm(1)=  15.418181  celldm(2)=   0.000000  celldm(3)=   0.000000
     celldm(4)=   0.000000  celldm(5)=   0.000000  celldm(6)=   0.000000

     crystal axes: (cart. coord. in units of alat)
               a(1) = (   0.999975  -0.007011  -0.000460 )  
               a(2) = (   0.001206   0.523531   0.000117 )  
               a(3) = (  -0.000214  -0.000058   0.302876 )  

     reciprocal axes: (cart. coord. in units 2 pi/alat)
               b(1) = (  1.000009 -0.002304  0.000706 )  
               b(2) = (  0.013392  1.910075  0.000378 )  
               b(3) = (  0.001515 -0.000740  3.301680 )  


     PseudoPot. # 1 for C  read from file:
     ./C.pbe-van_bm.upf
     MD5 check sum: 1a69bf6b8db32088f5b2163dbdb77a27
     Pseudo is Ultrasoft, Zval =  4.0
     Generated by new atomic code, or converted to UPF format
     Using radial grid of  721 points,  4 beta functions with: 
                l(1) =   0
                l(2) =   0
                l(3) =   1
                l(4) =   1
     Q(r) pseudized with  8 coefficients,  rinner =    0.800   0.800   0.800


     atomic species   valence    mass     pseudopotential
        C              4.00    12.00000     C ( 1.00)

     No symmetry found



   Cartesian axes

     site n.     atom                  positions (alat units)
         1           C   tau(   1) = (   0.0251025   0.1572724   0.1638140  )
         2           C   tau(   2) = (   0.0246450   0.1574914   0.0123750  )
         3           C   tau(   3) = (   0.4908802   0.2002055   0.0040259  )
         4           C   tau(   4) = (   0.5996072   0.4780670   0.1092532  )
         5           C   tau(   5) = (   0.3940186   0.4510020   0.1687976  )
         6           C   tau(   6) = (   0.5428297   0.0281232  -0.0378579  )
         7           C   tau(   7) = (   0.4348135   0.2735121   0.1599060  )
         8           C   tau(   8) = (   0.6410794   0.3006263   0.1000845  )

     number of k points=    12  Marzari-Vanderbilt smearing, width (Ry)=  0.0200
                       cart. coord. in units 2pi/alat
        k(    1) = (   0.0000000   0.0000000   0.0000000), wk =   0.1250000
        k(    2) = (   0.0003788  -0.0001849   0.8254200), wk =   0.2500000
        k(    3) = (  -0.0007576   0.0003699  -1.6508400), wk =   0.1250000
        k(    4) = (  -0.0066962  -0.9550373  -0.0001888), wk =   0.1250000
        k(    5) = (  -0.0063174  -0.9552222   0.8252312), wk =   0.2500000
        k(    6) = (  -0.0074538  -0.9546674  -1.6510288), wk =   0.1250000
        k(    7) = (  -0.5000044   0.0011522  -0.0003531), wk =   0.1250000
        k(    8) = (  -0.4996256   0.0009673   0.8250669), wk =   0.2500000
        k(    9) = (  -0.5007621   0.0015221  -1.6511931), wk =   0.1250000
        k(   10) = (  -0.5067006  -0.9538850  -0.0005419), wk =   0.1250000
        k(   11) = (  -0.5063218  -0.9540700   0.8248781), wk =   0.2500000
        k(   12) = (  -0.5074583  -0.9535152  -1.6513819), wk =   0.1250000

     Dense  grid:    19869 G-vectors     FFT dimensions: (  64,  36,  20)

     Estimated max dynamical RAM per process >       2.72 MB

     Estimated total dynamical RAM >     260.93 MB

     Initial potential from superposition of free atoms

     starting charge   31.99968, renormalised to   32.00000
     Starting wfcs are   32 randomized atomic wfcs

     total cpu time spent up to now is        1.7 secs

     Self-consistent Calculation

     iteration #  1     ecut=    40.00 Ry     beta= 0.50
     Davidson diagonalization with overlap
     ethr =  1.00E-02,  avg # of iterations =  2.0

     total cpu time spent up to now is        2.3 secs

     total energy              =     -89.29050402 Ry
     Harris-Foulkes estimate   =     -90.45270151 Ry
     estimated scf accuracy    <       1.81391660 Ry

     iteration #  2     ecut=    40.00 Ry     beta= 0.50
     Davidson diagonalization with overlap
     ethr =  5.67E-03,  avg # of iterations =  5.6

     total cpu time spent up to now is        3.3 secs

     total energy              =     -88.53172039 Ry
     Harris-Foulkes estimate   =     -92.27641649 Ry
     estimated scf accuracy    <      19.81355606 Ry

     iteration #  3     ecut=    40.00 Ry     beta= 0.50
     Davidson diagonalization with overlap
     ethr =  5.67E-03,  avg # of iterations =  3.2

     total cpu time spent up to now is        4.0 secs

     total energy              =     -90.04667782 Ry
     Harris-Foulkes estimate   =     -90.17397531 Ry
     estimated scf accuracy    <       0.54416215 Ry

     iteration #  4     ecut=    40.00 Ry     beta= 0.50
     Davidson diagonalization with overlap
     ethr =  1.70E-03,  avg # of iterations =  2.8

     total cpu time spent up to now is        4.7 secs

     total energy              =     -90.09984664 Ry
     Harris-Foulkes estimate   =     -90.18521026 Ry
     estimated scf accuracy    <       0.63386169 Ry

     iteration #  5     ecut=    40.00 Ry     beta= 0.50
     Davidson diagonalization with overlap
     ethr =  1.70E-03,  avg # of iterations =  1.0

     total cpu time spent up to now is        5.1 secs

     total energy              =     -90.14029627 Ry
     Harris-Foulkes estimate   =     -90.14271100 Ry
     estimated scf accuracy    <       0.02539792 Ry

     iteration #  6     ecut=    40.00 Ry     beta= 0.50
     Davidson diagonalization with overlap
     ethr =  7.94E-05,  avg # of iterations =  5.2

     total cpu time spent up to now is        6.0 secs

     total energy              =     -90.14016990 Ry
     Harris-Foulkes estimate   =     -90.14196510 Ry
     estimated scf accuracy    <       0.01907338 Ry

     iteration #  7     ecut=    40.00 Ry     beta= 0.50
     Davidson diagonalization with overlap
     ethr =  5.96E-05,  avg # of iterations =  1.2

     total cpu time spent up to now is        6.5 secs

     total energy              =     -90.13941966 Ry
     Harris-Foulkes estimate   =     -90.14092734 Ry
     estimated scf accuracy    <       0.01042852 Ry

     iteration #  8     ecut=    40.00 Ry     beta= 0.50
     Davidson diagonalization with overlap
     ethr =  3.26E-05,  avg # of iterations =  1.0

     total cpu time spent up to now is        6.9 secs

     total energy              =     -90.14013020 Ry
     Harris-Foulkes estimate   =     -90.14020343 Ry
     estimated scf accuracy    <       0.00051689 Ry

     iteration #  9     ecut=    40.00 Ry     beta= 0.50
     Davidson diagonalization with overlap
     ethr =  1.62E-06,  avg # of iterations =  4.8

     total cpu time spent up to now is        7.8 secs

     total energy              =     -90.14029218 Ry
     Harris-Foulkes estimate   =     -90.14031521 Ry
     estimated scf accuracy    <       0.00024820 Ry

     iteration # 10     ecut=    40.00 Ry     beta= 0.50
     Davidson diagonalization with overlap
     ethr =  7.76E-07,  avg # of iterations =  1.0

     total cpu time spent up to now is        8.2 secs

     total energy              =     -90.14029155 Ry
     Harris-Foulkes estimate   =     -90.14030117 Ry
     estimated scf accuracy    <       0.00008804 Ry

     iteration # 11     ecut=    40.00 Ry     beta= 0.50
     Davidson diagonalization with overlap
     ethr =  2.75E-07,  avg # of iterations =  1.2

     total cpu time spent up to now is        8.6 secs

     total energy              =     -90.14029557 Ry
     Harris-Foulkes estimate   =     -90.14029650 Ry
     estimated scf accuracy    <       0.00000574 Ry

     iteration # 12     ecut=    40.00 Ry     beta= 0.50
     Davidson diagonalization with overlap
     ethr =  1.79E-08,  avg # of iterations =  2.6

     total cpu time spent up to now is        9.2 secs

     total energy              =     -90.14029632 Ry
     Harris-Foulkes estimate   =     -90.14029709 Ry
     estimated scf accuracy    <       0.00000763 Ry

     iteration # 13     ecut=    40.00 Ry     beta= 0.50
     Davidson diagonalization with overlap
     ethr =  1.79E-08,  avg # of iterations =  1.0

     total cpu time spent up to now is        9.6 secs

     End of self-consistent calculation

          k = 0.0000 0.0000 0.0000 (  2503 PWs)   bands (ev):

   -17.3799 -12.3873 -12.1487  -9.9865  -9.1059  -4.9236  -3.7141  -2.6402
    -1.9859  -1.9025  -1.2141  -1.0541  -0.5351   1.8615   3.5391   5.9872
     6.2906   7.3789   9.8770  10.5293

          k = 0.0004-0.0002 0.8254 (  2486 PWs)   bands (ev):

   -16.2510 -11.3850 -11.3167  -9.4081  -8.2821  -6.3202  -6.0588  -3.9849
    -2.5978  -2.1235  -1.1832   0.2097   0.4007   0.9806   3.3577   4.3003
     5.0563   7.3709   9.1546  10.9382

          k =-0.0008 0.0004-1.6508 (  2500 PWs)   bands (ev):

   -13.6124 -12.1180  -9.0801  -9.0708  -8.7675  -8.0798  -6.2722  -5.8964
    -4.2190  -2.7507   0.2681   0.7622   2.1610   2.7276   4.4790   4.5449
     4.6817   4.7176   5.6052   5.8867

          k =-0.0067-0.9550-0.0002 (  2474 PWs)   bands (ev):

   -16.3079 -15.2888 -12.1167  -8.8544  -6.4471  -4.9217  -4.3272  -4.2428
    -1.6311  -1.4438  -1.1802  -0.9130   0.0390   0.8015   2.5426   5.4684
     6.2958   6.9750   8.7942  10.6187

          k =-0.0063-0.9552 0.8252 (  2482 PWs)   bands (ev):

   -15.2071 -14.1822 -11.2905  -8.1338  -6.4053  -6.3142  -6.1323  -4.5076
    -3.5633  -2.4098  -0.0475   0.2325   0.3182   1.0873   3.3016   3.9860
     4.3810   7.1212   9.0800  10.3921

          k =-0.0075-0.9547-1.6510 (  2472 PWs)   bands (ev):

   -12.9101 -10.9938 -10.9828 -10.3292  -9.0629  -9.0540  -5.6864  -4.3554
    -2.7145  -1.5152  -0.7186   0.1402   2.7163   2.8016   4.3712   4.4273
     4.5685   4.6328   4.9836   6.5046

          k =-0.5000 0.0012-0.0004 (  2488 PWs)   bands (ev):

   -17.3798 -12.3901 -12.1477  -9.9864  -9.0986  -4.9232  -3.7236  -2.6395
    -2.0663  -1.9499  -1.1625  -1.0387  -0.4245   1.9276   3.4389   6.0019
     6.1207   7.2621  10.4167  10.6952

          k =-0.4996 0.0010 0.8251 (  2457 PWs)   bands (ev):

   -16.2509 -11.3923 -11.3106  -9.4077  -8.2779  -6.3201  -6.0573  -3.9852
    -2.5978  -2.1201  -1.2466   0.1446   0.4009   1.1917   3.3609   4.2115
     5.0611   7.2237   9.1534  10.9335

          k =-0.5008 0.0015-1.6512 (  2478 PWs)   bands (ev):

   -13.6123 -12.1179  -9.0813  -9.0714  -8.7668  -8.0793  -6.2704  -5.8962
    -4.2176  -2.7476   0.2554   0.7623   2.1835   2.6717   4.4220   4.6161
     4.7160   4.7293   5.5944   5.8909

          k =-0.5067-0.9539-0.0005 (  2490 PWs)   bands (ev):

   -16.3079 -15.2887 -12.1180  -8.8544  -6.4384  -4.9221  -4.3227  -4.2427
    -1.6058  -1.4083  -1.2790  -0.9066  -0.0518   0.8174   2.7133   5.4462
     6.3433   7.0296   8.6666  10.3590

          k =-0.5063-0.9541 0.8249 (  2495 PWs)   bands (ev):

   -15.2071 -14.1821 -11.2915  -8.1337  -6.4029  -6.3148  -6.1326  -4.5038
    -3.5567  -2.4101   0.0528   0.1336   0.2809   1.0109   3.4680   3.9655
     4.3876   7.1696   9.0517  10.3779

          k =-0.5075-0.9535-1.6514 (  2464 PWs)   bands (ev):

   -12.9101 -10.9936 -10.9827 -10.3290  -9.0634  -9.0543  -5.6862  -4.3551
    -2.7144  -1.5117  -0.7127   0.1412   2.7156   2.8486   4.2424   4.4017
     4.4087   4.5544   5.3028   6.5118

     the Fermi energy is     4.5668 ev

!    total energy              =     -90.14029663 Ry
     Harris-Foulkes estimate   =     -90.14029675 Ry
     estimated scf accuracy    <       0.00000016 Ry

     The total energy is the sum of the following terms:

     one-electron contribution =     -97.41848231 Ry
     hartree contribution      =      61.67595051 Ry
     xc contribution           =     -27.61174295 Ry
     ewald contribution        =     -26.78422190 Ry
     smearing contrib. (-TS)   =      -0.00179999 Ry

     convergence has been achieved in  13 iterations

     Forces acting on atoms (cartesian axes, Ry/au):

     atom    1 type  1   force =     0.00147048   -0.00093587    0.00512956
     atom    2 type  1   force =    -0.00137764    0.00066540   -0.00471732
     atom    3 type  1   force =     0.02745048   -0.01884588    0.00756093
     atom    4 type  1   force =    -0.00542509   -0.03798544    0.01552706
     atom    5 type  1   force =    -0.01918764   -0.00722643    0.00572074
     atom    6 type  1   force =    -0.02745857    0.01844113   -0.00744400
     atom    7 type  1   force =     0.00617914    0.03805124   -0.01550793
     atom    8 type  1   force =     0.01834885    0.00783585   -0.00626903

     Total force =     0.081852     Total SCF correction =     0.000519


     Computing stress (Cartesian axis) and pressure

          total   stress  (Ry/bohr**3)                   (kbar)     P=      120.26
   0.00001779  -0.00008265   0.00001482            2.62      -12.16        2.18
  -0.00008265   0.00039137  -0.00149440          -12.16       57.57     -219.83
   0.00001482  -0.00149440   0.00204337            2.18     -219.83      300.59


     BFGS Geometry Optimization

     number of scf cycles    =   1
     number of bfgs steps    =   0

     enthalpy new            =     -90.1402571244 Ry

     new trust radius        =       0.3051412709 bohr
     new conv_thr            =       0.0000010000 Ry

     new unit-cell volume =    616.29277 a.u.^3 (    91.32516 Ang^3 )
     density =      1.74554 g/cm^3

CELL_PARAMETERS (bohr)
  15.424850670  -0.140749900   0.002287740
   0.001930017   8.150758786  -0.299666711
  -0.001569585  -0.175365347   4.908377899

ATOMIC_POSITIONS (crystal)
C             0.0249517487        0.3006854626        0.5418816432
C             0.0242013317        0.3012361207        0.0397686558
C             0.4922095754        0.3866723157        0.0155107140
C             0.5982425221        0.9165048586        0.3646002844
C             0.3918588498        0.8658762306        0.5588025119
C             0.5409589653        0.0632335376       -0.1257906558
C             0.4346943759        0.5330309489        0.5250928825
C             0.6416516311        0.5838285253        0.3298549641



     Writing output data file ./pp.save/
     NEW-OLD atomic charge density approx. for the potential
     extrapolated charge   33.82366, renormalised to   32.00000

     total cpu time spent up to now is        9.8 secs

     Self-consistent Calculation

     iteration #  1     ecut=    40.00 Ry     beta= 0.50
     Davidson diagonalization with overlap
     c_bands:  1 eigenvalues not converged
     ethr =  1.00E-06,  avg # of iterations = 14.3

     total cpu time spent up to now is       12.6 secs

     total energy              =     -88.44667852 Ry
     Harris-Foulkes estimate   =     -85.94047937 Ry
     estimated scf accuracy    <       1.96059230 Ry

     iteration #  2     ecut=    40.00 Ry     beta= 0.50
     Davidson diagonalization with overlap
     ethr =  6.13E-03,  avg # of iterations =  6.8

     total cpu time spent up to now is       14.1 secs

     total energy              =     -87.97409725 Ry
     Harris-Foulkes estimate   =     -94.02643663 Ry
     estimated scf accuracy    <      35.85939786 Ry

     iteration #  3     ecut=    40.00 Ry     beta= 0.50
     Davidson diagonalization with overlap
     ethr =  6.13E-03,  avg # of iterations =  4.4

     total cpu time spent up to now is       15.1 secs

     total energy              =     -90.24217193 Ry
     Harris-Foulkes estimate   =     -90.43048663 Ry
     estimated scf accuracy    <       1.66390002 Ry

     iteration #  4     ecut=    40.00 Ry     beta= 0.50
     Davidson diagonalization with overlap
     ethr =  5.20E-03,  avg # of iterations =  1.3

     total cpu time spent up to now is       15.6 secs

     total energy              =     -90.21703522 Ry
     Harris-Foulkes estimate   =     -90.27956732 Ry
     estimated scf accuracy    <       1.03137747 Ry

     iteration #  5     ecut=    40.00 Ry     beta= 0.50
     Davidson diagonalization with overlap
     ethr =  3.22E-03,  avg # of iterations =  1.7

     total cpu time spent up to now is       16.1 secs

     total energy              =     -90.19464644 Ry
     Harris-Foulkes estimate   =     -90.22871888 Ry
     estimated scf accuracy    <       0.64487205 Ry

     iteration #  6     ecut=    40.00 Ry     beta= 0.50
     Davidson diagonalization with overlap
     ethr =  2.02E-03,  avg # of iterations =  1.0

     total cpu time spent up to now is       16.6 secs

     total energy              =     -90.19917726 Ry
     Harris-Foulkes estimate   =     -90.20400820 Ry
     estimated scf accuracy    <       0.16846093 Ry

     iteration #  7     ecut=    40.00 Ry     beta= 0.50
     Davidson diagonalization with overlap
     ethr =  5.26E-04,  avg # of iterations =  1.9

     total cpu time spent up to now is       17.1 secs

     total energy              =     -90.20282726 Ry
     Harris-Foulkes estimate   =     -90.20509019 Ry
     estimated scf accuracy    <       0.07018302 Ry

     iteration #  8     ecut=    40.00 Ry     beta= 0.50
     Davidson diagonalization with overlap
     ethr =  2.19E-04,  avg # of iterations =  1.8

     total cpu time spent up to now is       17.7 secs

     total energy              =     -90.20039009 Ry
     Harris-Foulkes estimate   =     -90.20333214 Ry
     estimated scf accuracy    <       0.06542921 Ry

     iteration #  9     ecut=    40.00 Ry     beta= 0.50
     Davidson diagonalization with overlap
     ethr =  2.04E-04,  avg # of iterations =  1.0

     total cpu time spent up to now is       18.1 secs

     total energy              =     -90.19443065 Ry
     Harris-Foulkes estimate   =     -90.20080394 Ry
     estimated scf accuracy    <       0.04777726 Ry

     iteration # 10     ecut=    40.00 Ry     beta= 0.50
     Davidson diagonalization with overlap
     ethr =  1.49E-04,  avg # of iterations =  1.9

     total cpu time spent up to now is       18.7 secs

     total energy              =     -90.19657255 Ry
     Harris-Foulkes estimate   =     -90.19768814 Ry
     estimated scf accuracy    <       0.00684646 Ry

     iteration # 11     ecut=    40.00 Ry     beta= 0.50
     Davidson diagonalization with overlap
     ethr =  2.14E-05,  avg # of iterations =  6.2

     total cpu time spent up to now is       19.9 secs

     total energy              =     -90.19742072 Ry
     Harris-Foulkes estimate   =     -90.19763853 Ry
     estimated scf accuracy    <       0.00408877 Ry

     iteration # 12     ecut=    40.00 Ry     beta= 0.50
     Davidson diagonalization with overlap
     ethr =  1.28E-05,  avg # of iterations =  1.0

     total cpu time spent up to now is       20.5 secs

     total energy              =     -90.19758488 Ry
     Harris-Foulkes estimate   =     -90.19756309 Ry
     estimated scf accuracy    <       0.00090720 Ry

     iteration # 13     ecut=    40.00 Ry     beta= 0.50
     Davidson diagonalization with overlap
     c_bands:  1 eigenvalues not converged
     ethr =  2.84E-06,  avg # of iterations =  2.9

     total cpu time spent up to now is       21.2 secs

     total energy              =     -90.19726479 Ry
     Harris-Foulkes estimate   =     -90.19767711 Ry
     estimated scf accuracy    <       0.00332001 Ry

     iteration # 14     ecut=    40.00 Ry     beta= 0.50
     Davidson diagonalization with overlap
     ethr =  2.84E-06,  avg # of iterations =  1.3

     total cpu time spent up to now is       21.7 secs

     total energy              =     -90.19736449 Ry
     Harris-Foulkes estimate   =     -90.19746919 Ry
     estimated scf accuracy    <       0.00042815 Ry

     iteration # 15     ecut=    40.00 Ry     beta= 0.50
     Davidson diagonalization with overlap
     ethr =  1.34E-06,  avg # of iterations =  2.4

     total cpu time spent up to now is       22.4 secs

     total energy              =     -90.19730151 Ry
     Harris-Foulkes estimate   =     -90.19750410 Ry
     estimated scf accuracy    <       0.00148994 Ry

     iteration # 16     ecut=    40.00 Ry     beta= 0.50
     Davidson diagonalization with overlap
     ethr =  1.34E-06,  avg # of iterations =  1.0

     total cpu time spent up to now is       22.9 secs

     total energy              =     -90.19740481 Ry
     Harris-Foulkes estimate   =     -90.19742004 Ry
     estimated scf accuracy    <       0.00018785 Ry

     iteration # 17     ecut=    40.00 Ry     beta= 0.50
     Davidson diagonalization with overlap
     ethr =  5.87E-07,  avg # of iterations =  1.0

     total cpu time spent up to now is       23.4 secs

     total energy              =     -90.19741192 Ry
     Harris-Foulkes estimate   =     -90.19741297 Ry
     estimated scf accuracy    <       0.00001066 Ry

     iteration # 18     ecut=    40.00 Ry     beta= 0.50
     Davidson diagonalization with overlap
     ethr =  3.33E-08,  avg # of iterations =  3.3

     total cpu time spent up to now is       24.2 secs

     total energy              =     -90.19741342 Ry
     Harris-Foulkes estimate   =     -90.19741378 Ry
     estimated scf accuracy    <       0.00000204 Ry

     iteration # 19     ecut=    40.00 Ry     beta= 0.50
     Davidson diagonalization with overlap
     ethr =  6.36E-09,  avg # of iterations =  1.8

     total cpu time spent up to now is       24.8 secs

     End of self-consistent calculation

          k = 0.0000 0.0000 0.0000 (  2503 PWs)   bands (ev):

   -17.1454 -12.2065 -12.0229 -10.1875  -9.3097  -5.0013  -3.6090  -2.7838
    -2.4142  -2.2813  -1.2184  -1.0422  -0.6180   1.0911   3.2373   4.7479
     4.9234   6.5431   9.2199   9.7094

          k = 0.0001 0.0289 0.7863 (  2486 PWs)   bands (ev):

   -16.1477 -11.4244 -11.2720  -9.8078  -8.4997  -6.5004  -5.9575  -4.1317
    -2.9448  -2.5234  -1.4340   0.0565   0.2485   0.4106   2.6484   3.7775
     4.3432   6.9354   8.6158   9.8990

          k =-0.0003-0.0578-1.5727 (  2500 PWs)   bands (ev):

   -14.0039 -12.2838  -9.2852  -9.2574  -8.7148  -7.5758  -6.9110  -6.0729
    -4.8136  -3.0998  -0.3771   0.8399   1.6833   2.0367   3.8767   3.9226
     4.0403   4.1122   4.9146   5.8138

          k =-0.0086-0.9471-0.0338 (  2474 PWs)   bands (ev):

   -16.1298 -15.0122 -12.1735  -9.0238  -6.2092  -4.9997  -4.7801  -4.6404
    -2.1631  -1.4728  -1.1883  -0.9037  -0.2714   0.6150   2.3135   4.5455
     4.8131   6.2384   8.0248   9.8801

          k =-0.0085-0.9181 0.7525 (  2482 PWs)   bands (ev):

   -15.2213 -13.9721 -11.3960  -8.4901  -6.7272  -6.4947  -6.3725  -4.6642
    -3.7088  -2.5234  -0.2682   0.0299   0.1192   0.6444   2.9944   3.0633
     3.6881   6.5969   8.5273   9.8150

          k =-0.0089-1.0049-1.6065 (  2472 PWs)   bands (ev):

   -13.6014 -11.0109 -10.9304  -9.9755  -9.2682  -9.2403  -6.4609  -4.1709
    -3.2211  -1.6882  -1.3022  -0.0265   2.0196   2.0403   3.7246   3.8500
     3.9058   4.0336   4.4456   6.1638

          k =-0.4998 0.0001-0.0002 (  2488 PWs)   bands (ev):

   -17.1453 -12.2121 -12.0194 -10.1874  -9.3020  -5.0011  -3.6213  -2.7834
    -2.4896  -2.2515  -1.2954  -1.0346  -0.4651   1.1804   3.1194   4.7302
     4.9354   6.2980   9.3780  10.0528

          k =-0.4996 0.0290 0.7862 (  2457 PWs)   bands (ev):

   -16.1476 -11.4279 -11.2704  -9.8065  -8.4956  -6.5004  -5.9563  -4.1328
    -2.9441  -2.5222  -1.4752  -0.1584   0.2537   0.7505   2.6460   3.6952
     4.3437   6.7976   8.6123   9.8597

          k =-0.5001-0.0577-1.5728 (  2478 PWs)   bands (ev):

   -14.0038 -12.2837  -9.2870  -9.2580  -8.7136  -7.5755  -6.9091  -6.0725
    -4.8124  -3.0961  -0.3895   0.8405   1.7133   1.9831   3.7689   4.0106
     4.0634   4.1330   4.9412   5.8163

          k =-0.5084-0.9469-0.0340 (  2490 PWs)   bands (ev):

   -16.1298 -15.0120 -12.1750  -9.0238  -6.1987  -4.9999  -4.7802  -4.6363
    -2.1537  -1.4110  -1.2928  -0.8898  -0.3815   0.6209   2.5086   4.5172
     4.8194   6.3370   7.9296   9.7490

          k =-0.5083-0.9180 0.7523 (  2495 PWs)   bands (ev):

   -15.2213 -13.9719 -11.3972  -8.4900  -6.7267  -6.4948  -6.3712  -4.6588
    -3.7026  -2.5239  -0.1549  -0.0621   0.0697   0.5597   2.9625   3.2473
     3.6921   6.6466   8.5033   9.8694

          k =-0.5087-1.0048-1.6067 (  2464 PWs)   bands (ev):

   -13.6014 -11.0107 -10.9302  -9.9751  -9.2690  -9.2410  -6.4605  -4.1707
    -3.2209  -1.6842  -1.2955  -0.0260   2.0217   2.0742   3.6499   3.7621
     3.8234   3.9327   4.7172   6.1973

     the Fermi energy is     3.9480 ev

!    total energy              =     -90.19741360 Ry
     Harris-Foulkes estimate   =     -90.19741366 Ry
     estimated scf accuracy    <       0.00000013 Ry

     The total energy is the sum of the following terms:

     one-electron contribution =     -92.19288722 Ry
     hartree contribution      =      58.49917744 Ry
     xc contribution           =     -27.18415154 Ry
     ewald contribution        =     -29.31718987 Ry
     smearing contrib. (-TS)   =      -0.00236242 Ry

     convergence has been achieved in  19 iterations

     Forces acting on atoms (cartesian axes, Ry/au):

     atom    1 type  1   force =     0.00093876   -0.00184981    0.03727505
     atom    2 type  1   force =    -0.00077825    0.00146512   -0.03680323
     atom    3 type  1   force =     0.00187313    0.04593475   -0.04547333
     atom    4 type  1   force =    -0.03447334    0.02758704   -0.05629937
     atom    5 type  1   force =     0.00793970   -0.02067480    0.02677003
     atom    6 type  1   force =    -0.00163698   -0.04616446    0.04551790
     atom    7 type  1   force =     0.03503352   -0.02715298    0.05596432
     atom    8 type  1   force =    -0.00889654    0.02085513   -0.02695137

     Total force =     0.154277     Total SCF correction =     0.000484


     Computing stress (Cartesian axis) and pressure

          total   stress  (Ry/bohr**3)                   (kbar)     P=      -56.55
  -0.00022317   0.00019161  -0.00033748          -32.83       28.19      -49.65
   0.00019161   0.00014514  -0.00063343           28.19       21.35      -93.18
  -0.00033748  -0.00063343  -0.00107513          -49.65      -93.18     -158.16


     number of scf cycles    =   2
     number of bfgs steps    =   1

     enthalpy old            =     -90.1402571244 Ry
     enthalpy new            =     -90.1973717057 Ry

     CASE: enthalpy_new < enthalpy_old

     new trust radius        =       0.1656437982 bohr
     new conv_thr            =       0.0000005630 Ry

     new unit-cell volume =    612.36151 a.u.^3 (    90.74261 Ang^3 )
     density =      1.75675 g/cm^3

CELL_PARAMETERS (bohr)
  15.342114844  -0.080859560  -0.121355726
   0.030584381   8.207504625  -0.556751062
  -0.037318607  -0.316101766   4.884727030

ATOMIC_POSITIONS (crystal)
C             0.0250511512        0.3002619264        0.5501994530
C             0.0241143042        0.3015989976        0.0315893094
C             0.4930373253        0.3913033593        0.0062469329
C             0.5959956068        0.9180315020        0.3538844059
C             0.3918401129        0.8629713139        0.5651008808
C             0.5401454375        0.0585550242       -0.1165054626
C             0.4369951809        0.5315605045        0.5357366890
C             0.6415898811        0.5867853720        0.3234687915



     Writing output data file ./pp.save/
     NEW-OLD atomic charge density approx. for the potential
     extrapolated charge   31.79457, renormalised to   32.00000

     total cpu time spent up to now is       24.9 secs

     Self-consistent Calculation

     iteration #  1     ecut=    40.00 Ry     beta= 0.50
     Davidson diagonalization with overlap
     c_bands:  1 eigenvalues not converged
     ethr =  1.00E-06,  avg # of iterations = 11.9

     total cpu time spent up to now is       27.8 secs

     total energy              =     -90.19871961 Ry
     Harris-Foulkes estimate   =     -90.79429546 Ry
     estimated scf accuracy    <       0.07834906 Ry

     iteration #  2     ecut=    40.00 Ry     beta= 0.50
     Davidson diagonalization with overlap
     ethr =  2.45E-04,  avg # of iterations =  5.2

     total cpu time spent up to now is       29.1 secs

     total energy              =     -90.17847211 Ry
     Harris-Foulkes estimate   =     -90.37769427 Ry
     estimated scf accuracy    <       1.17569566 Ry

     iteration #  3     ecut=    40.00 Ry     beta= 0.50
     Davidson diagonalization with overlap
     ethr =  2.45E-04,  avg # of iterations =  3.7

     total cpu time spent up to now is       30.1 secs

     total energy              =     -90.24561171 Ry
     Harris-Foulkes estimate   =     -90.25113629 Ry
     estimated scf accuracy    <       0.01665494 Ry

     iteration #  4     ecut=    40.00 Ry     beta= 0.50
     Davidson diagonalization with overlap
     ethr =  5.20E-05,  avg # of iterations =  4.1

     total cpu time spent up to now is       31.2 secs

     total energy              =     -90.24652795 Ry
     Harris-Foulkes estimate   =     -90.24772313 Ry
     estimated scf accuracy    <       0.00244117 Ry

     iteration #  5     ecut=    40.00 Ry     beta= 0.50
     Davidson diagonalization with overlap
     ethr =  7.63E-06,  avg # of iterations =  3.2

     total cpu time spent up to now is       32.2 secs

     total energy              =     -90.24665500 Ry
     Harris-Foulkes estimate   =     -90.24788752 Ry
     estimated scf accuracy    <       0.00619753 Ry

     iteration #  6     ecut=    40.00 Ry     beta= 0.50
     Davidson diagonalization with overlap
     ethr =  7.63E-06,  avg # of iterations =  2.2

     total cpu time spent up to now is       33.0 secs

     total energy              =     -90.24708949 Ry
     Harris-Foulkes estimate   =     -90.24737151 Ry
     estimated scf accuracy    <       0.00136664 Ry

     iteration #  7     ecut=    40.00 Ry     beta= 0.50
     Davidson diagonalization with overlap
     ethr =  4.27E-06,  avg # of iterations =  1.2

     total cpu time spent up to now is       33.6 secs

     total energy              =     -90.24722838 Ry
     Harris-Foulkes estimate   =     -90.24725744 Ry
     estimated scf accuracy    <       0.00013113 Ry

     iteration #  8     ecut=    40.00 Ry     beta= 0.50
     Davidson diagonalization with overlap
     ethr =  4.10E-07,  avg # of iterations =  2.2

     total cpu time spent up to now is       34.4 secs

     total energy              =     -90.24724372 Ry
     Harris-Foulkes estimate   =     -90.24724767 Ry
     estimated scf accuracy    <       0.00002111 Ry

     iteration #  9     ecut=    40.00 Ry     beta= 0.50
     Davidson diagonalization with overlap
     ethr =  6.60E-08,  avg # of iterations =  2.0

     total cpu time spent up to now is       35.2 secs

     total energy              =     -90.24724695 Ry
     Harris-Foulkes estimate   =     -90.24724738 Ry
     estimated scf accuracy    <       0.00000461 Ry

     iteration # 10     ecut=    40.00 Ry     beta= 0.50
     Davidson diagonalization with overlap
     ethr =  1.44E-08,  avg # of iterations =  1.0

     total cpu time spent up to now is       35.9 secs

     total energy              =     -90.24724691 Ry
     Harris-Foulkes estimate   =     -90.24724725 Ry
     estimated scf accuracy    <       0.00000215 Ry

     iteration # 11     ecut=    40.00 Ry     beta= 0.50
     Davidson diagonalization with overlap
     ethr =  6.71E-09,  avg # of iterations =  1.2

     total cpu time spent up to now is       36.5 secs

     End of self-consistent calculation

          k = 0.0000 0.0000 0.0000 (  2503 PWs)   bands (ev):

   -17.0985 -12.1864 -12.0344  -9.9170  -9.2137  -4.9727  -3.6954  -2.8372
    -2.0494  -1.9893  -1.2019  -1.0523  -0.8764   1.3608   3.2090   4.4191
     4.9979   6.8116   9.4525  10.0086

          k = 0.0066 0.0537 0.7926 (  2486 PWs)   bands (ev):

   -16.0799 -11.4044 -11.3738  -9.4675  -8.2881  -6.4644  -5.9294  -4.5054
    -2.9024  -2.1715  -1.2295   0.0663   0.2380   0.7273   2.6720   3.6641
     4.2363   7.0220   9.0848  10.0298

          k =-0.0131-0.1075-1.5853 (  2500 PWs)   bands (ev):

   -13.8550 -12.2466  -9.3057  -9.1679  -8.7865  -7.9311  -6.5001  -5.6317
    -4.6850  -3.0609  -0.2285   0.9979   1.4850   2.1210   3.6052   3.7178
     4.2436   4.4692   5.0106   6.2970

          k =-0.0055-0.9434-0.0611 (  2474 PWs)   bands (ev):

   -16.1457 -14.8754 -12.1538  -8.9052  -6.1222  -4.9721  -4.4792  -4.3520
    -2.4467  -1.4706  -1.1906  -1.0467  -0.1470   0.7741   2.3914   4.4942
     4.6905   6.4917   8.5149  10.6779

          k = 0.0011-0.8897 0.7315 (  2482 PWs)   bands (ev):

   -15.2635 -13.7663 -11.3730  -8.4445  -6.6509  -6.4605  -6.1759  -4.4664
    -3.4708  -2.7485  -0.2342   0.0264   0.1162   0.8187   2.9076   3.2121
     3.5169   6.7397   9.0243   9.9642

          k =-0.0186-1.0509-1.6463 (  2472 PWs)   bands (ev):

   -13.6319 -10.7027 -10.5174 -10.3178  -9.2919  -9.1540  -6.3135  -3.8096
    -3.6009  -1.5197  -1.0385   0.1195   1.4847   2.1465   3.4808   3.6400
     4.2464   4.3603   4.6892   6.1376

          k =-0.5025 0.0016-0.0037 (  2488 PWs)   bands (ev):

   -17.0983 -12.1920 -12.0310  -9.9170  -9.2055  -4.9726  -3.7050  -2.8373
    -2.2003  -1.9423  -1.2004  -1.0340  -0.7663   1.4690   3.0801   4.4118
     5.0069   6.5408   9.8604  10.1327

          k =-0.4959 0.0554 0.7889 (  2457 PWs)   bands (ev):

   -16.0797 -11.4093 -11.3709  -9.4654  -8.2846  -6.4643  -5.9278  -4.5059
    -2.8990  -2.1858  -1.2558  -0.0799   0.2417   1.0022   2.6597   3.6093
     4.2174   6.8896   9.0833  10.0096

          k =-0.5156-0.1059-1.5890 (  2478 PWs)   bands (ev):

   -13.8549 -12.2464  -9.3064  -9.1700  -8.7847  -7.9311  -6.4984  -5.6311
    -4.6837  -3.0570  -0.2385   1.0008   1.5075   2.0654   3.5334   3.7127
     4.3666   4.4758   5.0364   6.2939

          k =-0.5080-0.9418-0.0648 (  2490 PWs)   bands (ev):

   -16.1457 -14.8752 -12.1553  -8.9052  -6.1109  -4.9724  -4.4752  -4.3521
    -2.4364  -1.4196  -1.2918  -1.0291  -0.2593   0.7774   2.5945   4.5055
     4.6592   6.5925   8.3915  10.4777

          k =-0.5014-0.8880 0.7278 (  2495 PWs)   bands (ev):

   -15.2635 -13.7660 -11.3744  -8.4444  -6.6488  -6.4612  -6.1758  -4.4593
    -3.4657  -2.7484  -0.1427  -0.0550   0.0768   0.7357   2.8869   3.3880
     3.5173   6.7861   8.9731   9.9625

          k =-0.5211-1.0493-1.6501 (  2464 PWs)   bands (ev):

   -13.6319 -10.7025 -10.5172 -10.3175  -9.2926  -9.1548  -6.3127  -3.8094
    -3.6009  -1.5159  -1.0321   0.1221   1.4833   2.1764   3.4835   3.5789
     4.0708   4.2338   4.9775   6.1856

     the Fermi energy is     3.8484 ev

!    total energy              =     -90.24724709 Ry
     Harris-Foulkes estimate   =     -90.24724713 Ry
     estimated scf accuracy    <       0.00000006 Ry

     The total energy is the sum of the following terms:

     one-electron contribution =     -93.25383372 Ry
     hartree contribution      =      59.15994615 Ry
     xc contribution           =     -27.29161884 Ry
     ewald contribution        =     -28.86566619 Ry
     smearing contrib. (-TS)   =       0.00392551 Ry

     convergence has been achieved in  11 iterations

     Forces acting on atoms (cartesian axes, Ry/au):

     atom    1 type  1   force =    -0.00072823   -0.00825704    0.14158136
     atom    2 type  1   force =     0.00214231    0.00766913   -0.14098546
     atom    3 type  1   force =     0.01287450   -0.01647139    0.00782879
     atom    4 type  1   force =    -0.01390783    0.00707471   -0.01480968
     atom    5 type  1   force =     0.01763773   -0.03693244    0.04132290
     atom    6 type  1   force =    -0.01257786    0.01700733   -0.00897518
     atom    7 type  1   force =     0.01467543   -0.00697993    0.01429314
     atom    8 type  1   force =    -0.02011605    0.03688964   -0.04025586

     Total force =     0.220863     Total SCF correction =     0.000415


     Computing stress (Cartesian axis) and pressure

          total   stress  (Ry/bohr**3)                   (kbar)     P=      -30.52
  -0.00016922   0.00027381  -0.00030517          -24.89       40.28      -44.89
   0.00027381   0.00019987  -0.00032867           40.28       29.40      -48.35
  -0.00030517  -0.00032867  -0.00065301          -44.89      -48.35      -96.06


     number of scf cycles    =   3
     number of bfgs steps    =   2

     enthalpy old            =     -90.1973717057 Ry
     enthalpy new            =     -90.2472054588 Ry

     CASE: enthalpy_new < enthalpy_old

     new trust radius        =       0.1826829148 bohr
     new conv_thr            =       0.0000010000 Ry

     new unit-cell volume =    607.15339 a.u.^3 (    89.97085 Ang^3 )
     density =      1.77182 g/cm^3

CELL_PARAMETERS (bohr)
  15.245799361   0.007287538  -0.272369842
   0.072849599   8.278091879  -0.837829472
  -0.080300103  -0.468883560   4.859640904

ATOMIC_POSITIONS (crystal)
C             0.0251071513        0.2990754700        0.5689380538
C             0.0241022988        0.3027016748        0.0130297560
C             0.4942315358        0.3943162082       -0.0009026453
C             0.5936951619        0.9192374238        0.3437212511
C             0.3921005112        0.8585738548        0.5741834020
C             0.5389705466        0.0555238589       -0.1094299113
C             0.4393650960        0.5304102973        0.5457954349
C             0.6411966984        0.5912292121        0.3143856587



     Writing output data file ./pp.save/
     NEW-OLD atomic charge density approx. for the potential
     extrapolated charge   31.72551, renormalised to   32.00000

     total cpu time spent up to now is       36.6 secs

     Self-consistent Calculation

     iteration #  1     ecut=    40.00 Ry     beta= 0.50
     Davidson diagonalization with overlap
     c_bands:  1 eigenvalues not converged
     c_bands:  1 eigenvalues not converged
     c_bands:  1 eigenvalues not converged
     ethr =  1.00E-06,  avg # of iterations = 15.9

     total cpu time spent up to now is       41.0 secs

     total energy              =     -90.21645893 Ry
     Harris-Foulkes estimate   =     -90.98309892 Ry
     estimated scf accuracy    <       0.06142004 Ry

     iteration #  2     ecut=    40.00 Ry     beta= 0.50
     Davidson diagonalization with overlap
     ethr =  1.92E-04,  avg # of iterations =  4.5

     total cpu time spent up to now is       42.6 secs

     total energy              =     -90.23872649 Ry
     Harris-Foulkes estimate   =     -90.25907550 Ry
     estimated scf accuracy    <       0.05192288 Ry

     iteration #  3     ecut=    40.00 Ry     beta= 0.50
     Davidson diagonalization with overlap
     ethr =  1.62E-04,  avg # of iterations =  2.3

     total cpu time spent up to now is       43.6 secs

     total energy              =     -90.24455276 Ry
     Harris-Foulkes estimate   =     -90.24606807 Ry
     estimated scf accuracy    <       0.00294278 Ry

     iteration #  4     ecut=    40.00 Ry     beta= 0.50
     Davidson diagonalization with overlap
     ethr =  9.20E-06,  avg # of iterations =  6.2

     total cpu time spent up to now is       45.6 secs

     total energy              =     -90.24377536 Ry
     Harris-Foulkes estimate   =     -90.24606806 Ry
     estimated scf accuracy    <       0.00911060 Ry

     iteration #  5     ecut=    40.00 Ry     beta= 0.50
     Davidson diagonalization with overlap
     ethr =  9.20E-06,  avg # of iterations =  4.6

     total cpu time spent up to now is       47.2 secs

     total energy              =     -90.24459012 Ry
     Harris-Foulkes estimate   =     -90.24465088 Ry
     estimated scf accuracy    <       0.00024076 Ry

     iteration #  6     ecut=    40.00 Ry     beta= 0.50
     Davidson diagonalization with overlap
     ethr =  7.52E-07,  avg # of iterations =  3.5

     total cpu time spent up to now is       48.5 secs

     total energy              =     -90.24459998 Ry
     Harris-Foulkes estimate   =     -90.24461849 Ry
     estimated scf accuracy    <       0.00005163 Ry

     iteration #  7     ecut=    40.00 Ry     beta= 0.50
     Davidson diagonalization with overlap
     ethr =  1.61E-07,  avg # of iterations =  2.1

     total cpu time spent up to now is       49.5 secs

     total energy              =     -90.24458113 Ry
     Harris-Foulkes estimate   =     -90.24464753 Ry
     estimated scf accuracy    <       0.00046273 Ry

     iteration #  8     ecut=    40.00 Ry     beta= 0.50
     Davidson diagonalization with overlap
     ethr =  1.61E-07,  avg # of iterations =  1.9

     total cpu time spent up to now is       50.6 secs

     total energy              =     -90.24461380 Ry
     Harris-Foulkes estimate   =     -90.24461483 Ry
     estimated scf accuracy    <       0.00000352 Ry

     iteration #  9     ecut=    40.00 Ry     beta= 0.50
     Davidson diagonalization with overlap
     ethr =  1.10E-08,  avg # of iterations =  2.0

     total cpu time spent up to now is       51.6 secs

     total energy              =     -90.24461408 Ry
     Harris-Foulkes estimate   =     -90.24461523 Ry
     estimated scf accuracy    <       0.00000894 Ry

     iteration # 10     ecut=    40.00 Ry     beta= 0.50
     Davidson diagonalization with overlap
     ethr =  1.10E-08,  avg # of iterations =  1.0

     total cpu time spent up to now is       52.5 secs

     End of self-consistent calculation

          k = 0.0000 0.0000 0.0000 (  2503 PWs)   bands (ev):

   -17.3777 -12.3258 -11.5944 -10.0173  -9.4149  -4.1640  -4.0566  -3.1524
    -2.0372  -1.9511  -1.5352  -0.7810  -0.5593   1.5467   2.8859   3.9280
     4.9152   6.8391   9.7534   9.8550

          k = 0.0143 0.0810 0.8012 (  2486 PWs)   bands (ev):

   -16.3309 -11.8105 -10.8608  -9.4612  -8.3470  -6.1649  -5.5488  -5.2595
    -3.2909  -2.1438  -1.1090   0.4487   0.6426   0.8587   2.4028   3.2856
     3.9857   6.8306   9.1219  10.7697

          k =-0.0286-0.1619-1.6024 (  2500 PWs)   bands (ev):

   -14.0027 -12.5347  -9.5091  -9.2956  -8.6160  -7.4735  -6.3675  -5.4964
    -4.6936  -3.3153  -0.3506   0.6049   1.1721   2.0064   3.1963   3.2937
     4.5716   5.9516   6.1113   6.3679

          k =-0.0012-0.9404-0.0908 (  2474 PWs)   bands (ev):

   -16.4696 -15.0759 -11.5626  -9.0883  -6.3231  -4.6563  -4.3339  -4.1560
    -2.9574  -1.4415  -1.0758  -0.7590  -0.1638   0.7116   2.2794   3.8306
     4.6780   6.5470   8.6676  10.6602

          k = 0.0131-0.8595 0.7105 (  2482 PWs)   bands (ev):

   -15.6315 -13.8675 -10.8376  -8.7489  -7.0470  -6.0865  -5.5453  -4.6410
    -3.7314  -2.9652  -0.3857   0.2007   0.4822   0.8489   2.5086   3.1058
     3.2215   6.6107   9.1048  10.6500

          k =-0.0297-1.1024-1.6932 (  2472 PWs)   bands (ev):

   -13.9979 -10.9547 -10.6966 -10.3485  -9.5007  -7.4626  -6.4871  -4.5445
    -3.5987  -1.6766  -1.1221   0.1266   0.6068   2.0893   3.1589   3.2236
     4.5853   5.6822   5.9594   6.2296

          k =-0.5058 0.0036-0.0080 (  2488 PWs)   bands (ev):

   -17.3776 -12.3262 -11.5978 -10.0173  -9.4051  -4.1596  -4.0647  -3.1523
    -2.1721  -1.9210  -1.5418  -0.6655  -0.5400   1.6697   2.7528   3.9194
     4.9213   6.5948   9.8290  10.0686

          k =-0.4915 0.0846 0.7932 (  2457 PWs)   bands (ev):

   -16.3308 -11.8104 -10.8641  -9.4575  -8.3444  -6.1635  -5.5471  -5.2600
    -3.2866  -2.1678  -1.1103   0.2039   0.6698   1.2016   2.3747   3.2663
     3.9431   6.7304   9.1282  10.6635

          k =-0.5343-0.1583-1.6105 (  2478 PWs)   bands (ev):

   -14.0027 -12.5346  -9.5098  -9.2955  -8.6160  -7.4756  -6.3646  -5.4958
    -4.6923  -3.3117  -0.3560   0.6149   1.1785   1.9668   3.1451   3.2847
     4.6675   6.0666   6.1823   6.2493

          k =-0.5070-0.9368-0.0988 (  2490 PWs)   bands (ev):

   -16.4696 -15.0758 -11.5645  -9.0882  -6.3129  -4.6535  -4.3340  -4.1554
    -2.9507  -1.4504  -0.9220  -0.8763  -0.3581   0.7136   2.5037   3.8483
     4.6454   6.6440   8.5524  10.6619

          k =-0.4927-0.8558 0.7025 (  2495 PWs)   bands (ev):

   -15.6315 -13.8674 -10.8392  -8.7485  -7.0455  -6.0866  -5.5458  -4.6342
    -3.7278  -2.9643  -0.3832   0.3236   0.3772   0.7093   2.4958   3.1089
     3.3912   6.6450   9.0438  10.6340

          k =-0.5355-1.0987-1.7012 (  2464 PWs)   bands (ev):

   -13.9979 -10.9545 -10.6965 -10.3483  -9.5014  -7.4647  -6.4844  -4.5443
    -3.5991  -1.6739  -1.1181   0.1321   0.6062   2.0975   3.1537   3.2034
     4.4819   5.6035   6.0233   6.3900

     the Fermi energy is     3.5034 ev

!    total energy              =     -90.24461456 Ry
     Harris-Foulkes estimate   =     -90.24461462 Ry
     estimated scf accuracy    <       0.00000008 Ry

     The total energy is the sum of the following terms:

     one-electron contribution =     -94.50585620 Ry
     hartree contribution      =      59.84376059 Ry
     xc contribution           =     -27.45967571 Ry
     ewald contribution        =     -28.12749720 Ry
     smearing contrib. (-TS)   =       0.00465398 Ry

     convergence has been achieved in  10 iterations

     Forces acting on atoms (cartesian axes, Ry/au):

     atom    1 type  1   force =     0.00726753    0.03805311   -0.38723167
     atom    2 type  1   force =    -0.00606179   -0.03875469    0.38782706
     atom    3 type  1   force =     0.02341039   -0.06279724    0.05611608
     atom    4 type  1   force =     0.00572844   -0.01858087    0.02467802
     atom    5 type  1   force =     0.03199180   -0.04667333    0.04831583
     atom    6 type  1   force =    -0.02346413    0.06334228   -0.05732126
     atom    7 type  1   force =    -0.00512426    0.01849571   -0.02491168
     atom    8 type  1   force =    -0.03374798    0.04691503   -0.04747239

     Total force =     0.576188     Total SCF correction =     0.000442


     Computing stress (Cartesian axis) and pressure

          total   stress  (Ry/bohr**3)                   (kbar)     P=       37.48
  -0.00017925   0.00028385  -0.00027958          -26.37       41.76      -41.13
   0.00028385   0.00029549  -0.00003072           41.76       43.47       -4.52
  -0.00027958  -0.00003072   0.00064817          -41.13       -4.52       95.35


     number of scf cycles    =   4
     number of bfgs steps    =   3

     enthalpy old            =     -90.2472054588 Ry
     enthalpy new            =     -90.2445732878 Ry

     CASE: enthalpy_new > enthalpy_old

     new trust radius        =       0.0876335041 bohr
     new conv_thr            =       0.0000010000 Ry

     new unit-cell volume =    610.05630 a.u.^3 (    90.40102 Ang^3 )
     density =      1.76338 g/cm^3

CELL_PARAMETERS (bohr)
  15.296066894  -0.038716874  -0.193554818
   0.050791170   8.241252037  -0.691133242
  -0.057867845  -0.389145977   4.872733479

ATOMIC_POSITIONS (crystal)
C             0.0250779246        0.2996946876        0.5591582842
C             0.0241085645        0.3021261821        0.0227160799
C             0.4936082714        0.3927437873        0.0028287554
C             0.5948957756        0.9186080472        0.3490254525
C             0.3919646081        0.8608689108        0.5694431887
C             0.5395837281        0.0571058393       -0.1131226770
C             0.4381282254        0.5310105962        0.5405457250
C             0.6414019024        0.5889099497        0.3191261913



     Writing output data file ./pp.save/
     NEW-OLD atomic charge density approx. for the potential
     extrapolated charge   32.15227, renormalised to   32.00000

     total cpu time spent up to now is       52.5 secs

     Self-consistent Calculation

     iteration #  1     ecut=    40.00 Ry     beta= 0.50
     Davidson diagonalization with overlap
     c_bands:  1 eigenvalues not converged
     ethr =  1.00E-06,  avg # of iterations = 13.8

     total cpu time spent up to now is       58.0 secs

     total energy              =     -90.25072298 Ry
     Harris-Foulkes estimate   =     -89.87135850 Ry
     estimated scf accuracy    <       0.02764808 Ry

     iteration #  2     ecut=    40.00 Ry     beta= 0.50
     Davidson diagonalization with overlap
     ethr =  8.64E-05,  avg # of iterations =  2.8

     total cpu time spent up to now is       59.5 secs

     total energy              =     -90.26195297 Ry
     Harris-Foulkes estimate   =     -90.26682991 Ry
     estimated scf accuracy    <       0.01086008 Ry

     iteration #  3     ecut=    40.00 Ry     beta= 0.50
     Davidson diagonalization with overlap
     ethr =  3.39E-05,  avg # of iterations =  2.4

     total cpu time spent up to now is       60.9 secs

     total energy              =     -90.26087246 Ry
     Harris-Foulkes estimate   =     -90.26279106 Ry
     estimated scf accuracy    <       0.00794833 Ry

     iteration #  4     ecut=    40.00 Ry     beta= 0.50
     Davidson diagonalization with overlap
     ethr =  2.48E-05,  avg # of iterations =  2.3

     total cpu time spent up to now is       62.2 secs

     total energy              =     -90.26164451 Ry
     Harris-Foulkes estimate   =     -90.26208450 Ry
     estimated scf accuracy    <       0.00232581 Ry

     iteration #  5     ecut=    40.00 Ry     beta= 0.50
     Davidson diagonalization with overlap
     ethr =  7.27E-06,  avg # of iterations =  1.9

     total cpu time spent up to now is       63.3 secs

     total energy              =     -90.26173238 Ry
     Harris-Foulkes estimate   =     -90.26189468 Ry
     estimated scf accuracy    <       0.00047314 Ry

     iteration #  6     ecut=    40.00 Ry     beta= 0.50
     Davidson diagonalization with overlap
     ethr =  1.48E-06,  avg # of iterations =  5.0

     total cpu time spent up to now is       65.4 secs

     total energy              =     -90.26178427 Ry
     Harris-Foulkes estimate   =     -90.26191206 Ry
     estimated scf accuracy    <       0.00090000 Ry

     iteration #  7     ecut=    40.00 Ry     beta= 0.50
     Davidson diagonalization with overlap
     ethr =  1.48E-06,  avg # of iterations =  1.0

     total cpu time spent up to now is       66.4 secs

     total energy              =     -90.26184896 Ry
     Harris-Foulkes estimate   =     -90.26184970 Ry
     estimated scf accuracy    <       0.00000587 Ry

     iteration #  8     ecut=    40.00 Ry     beta= 0.50
     Davidson diagonalization with overlap
     ethr =  1.83E-08,  avg # of iterations =  3.2

     total cpu time spent up to now is       68.2 secs

     total energy              =     -90.26184773 Ry
     Harris-Foulkes estimate   =     -90.26185204 Ry
     estimated scf accuracy    <       0.00003203 Ry

     iteration #  9     ecut=    40.00 Ry     beta= 0.50
     Davidson diagonalization with overlap
     ethr =  1.83E-08,  avg # of iterations =  1.0

     total cpu time spent up to now is       69.2 secs

     End of self-consistent calculation

          k = 0.0000 0.0000 0.0000 (  2503 PWs)   bands (ev):

   -17.2256 -12.1720 -11.9109  -9.9645  -9.3048  -4.6376  -3.8607  -2.9782
    -2.0350  -1.9694  -1.1784  -1.0023  -0.8252   1.4303   3.0760   4.1544
     4.9525   6.8324   9.5903  10.1077

          k = 0.0102 0.0667 0.7965 (  2486 PWs)   bands (ev):

   -16.1947 -11.5821 -11.1379  -9.4582  -8.3201  -6.0996  -6.0340  -4.8521
    -3.0760  -2.1455  -1.1872   0.2521   0.4369   0.7807   2.5492   3.4848
     4.1150   6.9380   9.1282  10.4025

          k =-0.0205-0.1335-1.5930 (  2500 PWs)   bands (ev):

   -13.9254 -12.3808  -9.4413  -9.0092  -8.3940  -8.2430  -6.4338  -5.5652
    -4.7111  -3.1814  -0.2853   0.8368   1.3334   2.0695   3.3884   3.4904
     4.5816   5.2165   5.3619   6.3503

          k =-0.0033-0.9417-0.0752 (  2474 PWs)   bands (ev):

   -16.2967 -14.9645 -11.8796  -8.9881  -6.2086  -4.6368  -4.5615  -4.3436
    -2.6911  -1.2762  -1.2201  -0.9839  -0.1625   0.7304   2.3486   4.1710
     4.6759   6.5225   8.5979  10.9484

          k = 0.0069-0.8750 0.7212 (  2482 PWs)   bands (ev):

   -15.4348 -13.8109 -11.1132  -8.5804  -6.8346  -6.1318  -6.0950  -4.5351
    -3.5596  -2.8927  -0.2420   0.0734   0.2874   0.8210   2.7251   3.2054
     3.3258   6.6851   9.0920  10.3456

          k =-0.0238-1.0752-1.6682 (  2472 PWs)   bands (ev):

   -13.8062 -10.6998 -10.6101 -10.4375  -9.4301  -8.3805  -6.3892  -4.1338
    -3.6055  -1.5852  -1.0676   0.1047   1.0588   2.1227   3.3054   3.4204
     4.5781   5.0337   5.2062   6.0204

          k =-0.5041 0.0026-0.0058 (  2488 PWs)   bands (ev):

   -17.2255 -12.1737 -11.9122  -9.9645  -9.2960  -4.6370  -3.8681  -2.9783
    -2.1771  -1.9318  -1.2325  -0.8480  -0.7989   1.5479   2.9435   4.1492
     4.9601   6.5711   9.9595  10.0938

          k =-0.4938 0.0694 0.7907 (  2457 PWs)   bands (ev):

   -16.1945 -11.5821 -11.1404  -9.4555  -8.3170  -6.1002  -6.0314  -4.8525
    -3.0721  -2.1655  -1.1986   0.0567   0.4471   1.0928   2.5303   3.4483
     4.0827   6.8207   9.1308  10.3673

          k =-0.5246-0.1308-1.5988 (  2478 PWs)   bands (ev):

   -13.9253 -12.3807  -9.4419  -9.0098  -8.3932  -8.2439  -6.4319  -5.5645
    -4.7098  -3.1778  -0.2928   0.8439   1.3463   2.0228   3.3303   3.4841
     4.7026   5.2176   5.4054   6.3292

          k =-0.5074-0.9391-0.0810 (  2490 PWs)   bands (ev):

   -16.2967 -14.9643 -11.8813  -8.9881  -6.1978  -4.6367  -4.5581  -4.3437
    -2.6830  -1.2738  -1.1530  -1.0647  -0.3046   0.7328   2.5623   4.1842
     4.6442   6.6220   8.4767  10.6909

          k =-0.4971-0.8724 0.7155 (  2495 PWs)   bands (ev):

   -15.4348 -13.8107 -11.1147  -8.5801  -6.8329  -6.1324  -6.0946  -4.5282
    -3.5555  -2.8921  -0.2218   0.1347   0.1985   0.7124   2.7072   3.3055
     3.4021   6.7263   9.0352  10.3176

          k =-0.5279-1.0726-1.6740 (  2464 PWs)   bands (ev):

   -13.8062 -10.6996 -10.6099 -10.4373  -9.4309  -8.3815  -6.3878  -4.1336
    -3.6057  -1.5819  -1.0624   0.1086   1.0579   2.1419   3.3046   3.3801
     4.3799   4.9943   5.3930   6.1064

     the Fermi energy is     3.6550 ev

!    total energy              =     -90.26184983 Ry
     Harris-Foulkes estimate   =     -90.26184990 Ry
     estimated scf accuracy    <       0.00000012 Ry

     The total energy is the sum of the following terms:

     one-electron contribution =     -93.83079079 Ry
     hartree contribution      =      59.47046004 Ry
     xc contribution           =     -27.36573493 Ry
     ewald contribution        =     -28.54042424 Ry
     smearing contrib. (-TS)   =       0.00464011 Ry

     convergence has been achieved in   9 iterations

     Forces acting on atoms (cartesian axes, Ry/au):

     atom    1 type  1   force =     0.00124809    0.00848290   -0.08573681
     atom    2 type  1   force =     0.00014592   -0.00906823    0.08626016
     atom    3 type  1   force =     0.01701890   -0.03857663    0.03015244
     atom    4 type  1   force =    -0.00464361   -0.00245070    0.00378390
     atom    5 type  1   force =     0.02356807   -0.04002759    0.04520733
     atom    6 type  1   force =    -0.01698631    0.03914974   -0.03122751
     atom    7 type  1   force =     0.00539643    0.00252285   -0.00419437
     atom    8 type  1   force =    -0.02574748    0.03996766   -0.04424515

     Total force =     0.170132     Total SCF correction =     0.000705


     Computing stress (Cartesian axis) and pressure

          total   stress  (Ry/bohr**3)                   (kbar)     P=       -4.14
  -0.00015317   0.00027590  -0.00029118          -22.53       40.59      -42.83
   0.00027590   0.00024567  -0.00016560           40.59       36.14      -24.36
  -0.00029118  -0.00016560  -0.00017701          -42.83      -24.36      -26.04


     number of scf cycles    =   5
     number of bfgs steps    =   3

     enthalpy old            =     -90.2472054588 Ry
     enthalpy new            =     -90.2618083546 Ry

     CASE: enthalpy_new < enthalpy_old

     new trust radius        =       0.1848728280 bohr
     new conv_thr            =       0.0000008626 Ry

     new unit-cell volume =    603.63354 a.u.^3 (    89.44926 Ang^3 )
     density =      1.78215 g/cm^3

CELL_PARAMETERS (bohr)
  15.154076378   0.150049480  -0.436320905
   0.140949255   8.349348006  -0.949072244
  -0.124796407  -0.525446330   4.834534326

ATOMIC_POSITIONS (crystal)
C             0.0252544165        0.3005721747        0.5570361061
C             0.0240684402        0.3010980791        0.0251137340
C             0.4957510168        0.3889319054        0.0060856714
C             0.5928835889        0.9189084253        0.3428326724
C             0.3937609372        0.8513944250        0.5882413720
C             0.5374601220        0.0610013435       -0.1167283437
C             0.4402481515        0.5307656613        0.5465523132
C             0.6393423270        0.5983959856        0.3005874745



     Writing output data file ./pp.save/
     NEW-OLD atomic charge density approx. for the potential
     extrapolated charge   31.65952, renormalised to   32.00000

     total cpu time spent up to now is       69.3 secs

     Self-consistent Calculation

     iteration #  1     ecut=    40.00 Ry     beta= 0.50
     Davidson diagonalization with overlap
     c_bands:  1 eigenvalues not converged
     c_bands:  1 eigenvalues not converged
     c_bands:  1 eigenvalues not converged
     c_bands:  1 eigenvalues not converged
     ethr =  1.00E-06,  avg # of iterations = 16.1

     total cpu time spent up to now is       76.5 secs

     total energy              =     -89.86244077 Ry
     Harris-Foulkes estimate   =     -91.23224265 Ry
     estimated scf accuracy    <       0.57284287 Ry

     iteration #  2     ecut=    40.00 Ry     beta= 0.50
     Davidson diagonalization with overlap
     ethr =  1.79E-03,  avg # of iterations =  4.8

     total cpu time spent up to now is       79.1 secs

     total energy              =     -89.65085617 Ry
     Harris-Foulkes estimate   =     -91.07193997 Ry
     estimated scf accuracy    <       7.25246454 Ry

     iteration #  3     ecut=    40.00 Ry     beta= 0.50
     Davidson diagonalization with overlap
     ethr =  1.79E-03,  avg # of iterations =  3.2

     total cpu time spent up to now is       81.1 secs

     total energy              =     -90.27980623 Ry
     Harris-Foulkes estimate   =     -90.31290467 Ry
     estimated scf accuracy    <       0.25405104 Ry

     iteration #  4     ecut=    40.00 Ry     beta= 0.50
     Davidson diagonalization with overlap
     ethr =  7.94E-04,  avg # of iterations =  1.6

     total cpu time spent up to now is       82.4 secs

     total energy              =     -90.29456171 Ry
     Harris-Foulkes estimate   =     -90.29564382 Ry
     estimated scf accuracy    <       0.01491745 Ry

     iteration #  5     ecut=    40.00 Ry     beta= 0.50
     Davidson diagonalization with overlap
     ethr =  4.66E-05,  avg # of iterations =  7.1

     total cpu time spent up to now is       85.5 secs

     total energy              =     -90.29478767 Ry
     Harris-Foulkes estimate   =     -90.29546344 Ry
     estimated scf accuracy    <       0.01286297 Ry

     iteration #  6     ecut=    40.00 Ry     beta= 0.50
     Davidson diagonalization with overlap
     ethr =  4.02E-05,  avg # of iterations =  1.0

     total cpu time spent up to now is       86.7 secs

     total energy              =     -90.29333926 Ry
     Harris-Foulkes estimate   =     -90.29507074 Ry
     estimated scf accuracy    <       0.01124773 Ry

     iteration #  7     ecut=    40.00 Ry     beta= 0.50
     Davidson diagonalization with overlap
     ethr =  3.51E-05,  avg # of iterations =  1.0

     total cpu time spent up to now is       87.9 secs

     total energy              =     -90.29249333 Ry
     Harris-Foulkes estimate   =     -90.29366111 Ry
     estimated scf accuracy    <       0.00599205 Ry

     iteration #  8     ecut=    40.00 Ry     beta= 0.50
     Davidson diagonalization with overlap
     ethr =  1.87E-05,  avg # of iterations =  2.2

     total cpu time spent up to now is       89.5 secs

     total energy              =     -90.29249196 Ry
     Harris-Foulkes estimate   =     -90.29267265 Ry
     estimated scf accuracy    <       0.00321373 Ry

     iteration #  9     ecut=    40.00 Ry     beta= 0.50
     Davidson diagonalization with overlap
     ethr =  1.00E-05,  avg # of iterations =  1.8

     total cpu time spent up to now is       91.0 secs

     total energy              =     -90.29220355 Ry
     Harris-Foulkes estimate   =     -90.29250849 Ry
     estimated scf accuracy    <       0.00298167 Ry

     iteration # 10     ecut=    40.00 Ry     beta= 0.50
     Davidson diagonalization with overlap
     ethr =  9.32E-06,  avg # of iterations =  1.0

     total cpu time spent up to now is       92.2 secs

     total energy              =     -90.29178183 Ry
     Harris-Foulkes estimate   =     -90.29220822 Ry
     estimated scf accuracy    <       0.00277000 Ry

     iteration # 11     ecut=    40.00 Ry     beta= 0.50
     Davidson diagonalization with overlap
     ethr =  8.66E-06,  avg # of iterations =  1.0

     total cpu time spent up to now is       93.4 secs

     total energy              =     -90.29320462 Ry
     Harris-Foulkes estimate   =     -90.29174812 Ry
     estimated scf accuracy    <       0.00346932 Ry

     iteration # 12     ecut=    40.00 Ry     beta= 0.50
     Davidson diagonalization with overlap
     ethr =  8.66E-06,  avg # of iterations =  1.4

     total cpu time spent up to now is       94.9 secs

     total energy              =     -90.29631662 Ry
     Harris-Foulkes estimate   =     -90.29296899 Ry
     estimated scf accuracy    <       0.00365136 Ry

     iteration # 13     ecut=    40.00 Ry     beta= 0.50
     Davidson diagonalization with overlap
     ethr =  8.66E-06,  avg # of iterations =  4.5

     total cpu time spent up to now is       97.6 secs

     total energy              =     -90.28362998 Ry
     Harris-Foulkes estimate   =     -90.29791082 Ry
     estimated scf accuracy    <       0.03877589 Ry

     iteration # 14     ecut=    40.00 Ry     beta= 0.50
     Davidson diagonalization with overlap
     ethr =  8.66E-06,  avg # of iterations =  5.1

     total cpu time spent up to now is      100.6 secs

     total energy              =     -90.28898929 Ry
     Harris-Foulkes estimate   =     -90.29067093 Ry
     estimated scf accuracy    <       0.00586294 Ry

     iteration # 15     ecut=    40.00 Ry     beta= 0.50
     Davidson diagonalization with overlap
     ethr =  8.66E-06,  avg # of iterations =  2.8

     total cpu time spent up to now is      102.6 secs

     total energy              =     -90.29005096 Ry
     Harris-Foulkes estimate   =     -90.29048013 Ry
     estimated scf accuracy    <       0.00854269 Ry

     iteration # 16     ecut=    40.00 Ry     beta= 0.50
     Davidson diagonalization with overlap
     ethr =  8.66E-06,  avg # of iterations =  1.0

     total cpu time spent up to now is      103.9 secs

     total energy              =     -90.28917896 Ry
     Harris-Foulkes estimate   =     -90.29013325 Ry
     estimated scf accuracy    <       0.00291717 Ry

     iteration # 17     ecut=    40.00 Ry     beta= 0.50
     Davidson diagonalization with overlap
     ethr =  8.66E-06,  avg # of iterations =  2.0

     total cpu time spent up to now is      105.6 secs

     total energy              =     -90.29233936 Ry
     Harris-Foulkes estimate   =     -90.29054016 Ry
     estimated scf accuracy    <       0.00552384 Ry

     iteration # 18     ecut=    40.00 Ry     beta= 0.50
     Davidson diagonalization with overlap
     ethr =  8.66E-06,  avg # of iterations =  2.4

     total cpu time spent up to now is      107.6 secs

     total energy              =     -90.29165599 Ry
     Harris-Foulkes estimate   =     -90.29203512 Ry
     estimated scf accuracy    <       0.00268250 Ry

     iteration # 19     ecut=    40.00 Ry     beta= 0.50
     Davidson diagonalization with overlap
     ethr =  8.38E-06,  avg # of iterations =  1.0

     total cpu time spent up to now is      108.9 secs

     total energy              =     -90.29049148 Ry
     Harris-Foulkes estimate   =     -90.29161427 Ry
     estimated scf accuracy    <       0.00371834 Ry

     iteration # 20     ecut=    40.00 Ry     beta= 0.50
     Davidson diagonalization with overlap
     ethr =  8.38E-06,  avg # of iterations =  2.0

     total cpu time spent up to now is      110.7 secs

     total energy              =     -90.29021881 Ry
     Harris-Foulkes estimate   =     -90.29017366 Ry
     estimated scf accuracy    <       0.00282357 Ry

     iteration # 21     ecut=    40.00 Ry     beta= 0.50
     Davidson diagonalization with overlap
     ethr =  8.38E-06,  avg # of iterations =  1.0

     total cpu time spent up to now is      112.1 secs

     total energy              =     -90.29021179 Ry
     Harris-Foulkes estimate   =     -90.29022237 Ry
     estimated scf accuracy    <       0.00330554 Ry

     iteration # 22     ecut=    40.00 Ry     beta= 0.50
     Davidson diagonalization with overlap
     ethr =  8.38E-06,  avg # of iterations =  1.0

     total cpu time spent up to now is      113.4 secs

     total energy              =     -90.28992807 Ry
     Harris-Foulkes estimate   =     -90.29021212 Ry
     estimated scf accuracy    <       0.00322360 Ry

     iteration # 23     ecut=    40.00 Ry     beta= 0.50
     Davidson diagonalization with overlap
     ethr =  8.38E-06,  avg # of iterations =  1.0

     total cpu time spent up to now is      114.8 secs

     total energy              =     -90.28960068 Ry
     Harris-Foulkes estimate   =     -90.28999547 Ry
     estimated scf accuracy    <       0.00067847 Ry

     iteration # 24     ecut=    40.00 Ry     beta= 0.50
     Davidson diagonalization with overlap
     ethr =  2.12E-06,  avg # of iterations =  7.8

     total cpu time spent up to now is      119.1 secs

     total energy              =     -90.29095212 Ry
     Harris-Foulkes estimate   =     -90.29117359 Ry
     estimated scf accuracy    <       0.02323958 Ry

     iteration # 25     ecut=    40.00 Ry     beta= 0.50
     Davidson diagonalization with overlap
     ethr =  2.12E-06,  avg # of iterations =  1.0

     total cpu time spent up to now is      120.6 secs

     total energy              =     -90.28997336 Ry
     Harris-Foulkes estimate   =     -90.29096259 Ry
     estimated scf accuracy    <       0.01912811 Ry

     iteration # 26     ecut=    40.00 Ry     beta= 0.50
     Davidson diagonalization with overlap
     ethr =  2.12E-06,  avg # of iterations =  2.5

     total cpu time spent up to now is      122.7 secs

     total energy              =     -90.28981538 Ry
     Harris-Foulkes estimate   =     -90.29021289 Ry
     estimated scf accuracy    <       0.00471310 Ry

     iteration # 27     ecut=    40.00 Ry     beta= 0.50
     Davidson diagonalization with overlap
     ethr =  2.12E-06,  avg # of iterations =  1.2

     total cpu time spent up to now is      124.2 secs

     total energy              =     -90.28994699 Ry
     Harris-Foulkes estimate   =     -90.28996585 Ry
     estimated scf accuracy    <       0.00024022 Ry

     iteration # 28     ecut=    40.00 Ry     beta= 0.50
     Davidson diagonalization with overlap
     ethr =  7.51E-07,  avg # of iterations =  1.0

     total cpu time spent up to now is      125.7 secs

     total energy              =     -90.28994424 Ry
     Harris-Foulkes estimate   =     -90.28995314 Ry
     estimated scf accuracy    <       0.00002862 Ry

     iteration # 29     ecut=    40.00 Ry     beta= 0.50
     Davidson diagonalization with overlap
     ethr =  8.94E-08,  avg # of iterations =  1.9

     total cpu time spent up to now is      127.6 secs

     total energy              =     -90.28995331 Ry
     Harris-Foulkes estimate   =     -90.28995702 Ry
     estimated scf accuracy    <       0.00008933 Ry

     iteration # 30     ecut=    40.00 Ry     beta= 0.50
     Davidson diagonalization with overlap
     ethr =  8.94E-08,  avg # of iterations =  1.0

     total cpu time spent up to now is      129.0 secs

     total energy              =     -90.28995244 Ry
     Harris-Foulkes estimate   =     -90.28995392 Ry
     estimated scf accuracy    <       0.00004140 Ry

     iteration # 31     ecut=    40.00 Ry     beta= 0.50
     Davidson diagonalization with overlap
     ethr =  8.94E-08,  avg # of iterations =  1.0

     total cpu time spent up to now is      130.5 secs

     total energy              =     -90.28995200 Ry
     Harris-Foulkes estimate   =     -90.28995264 Ry
     estimated scf accuracy    <       0.00002162 Ry

     iteration # 32     ecut=    40.00 Ry     beta= 0.50
     Davidson diagonalization with overlap
     ethr =  6.76E-08,  avg # of iterations =  1.0

     total cpu time spent up to now is      132.0 secs

     total energy              =     -90.28995135 Ry
     Harris-Foulkes estimate   =     -90.28995207 Ry
     estimated scf accuracy    <       0.00001290 Ry

     iteration # 33     ecut=    40.00 Ry     beta= 0.50
     Davidson diagonalization with overlap
     ethr =  4.03E-08,  avg # of iterations =  1.0

     total cpu time spent up to now is      133.5 secs

     total energy              =     -90.28995119 Ry
     Harris-Foulkes estimate   =     -90.28995150 Ry
     estimated scf accuracy    <       0.00000409 Ry

     iteration # 34     ecut=    40.00 Ry     beta= 0.50
     Davidson diagonalization with overlap
     ethr =  1.28E-08,  avg # of iterations =  1.0

     total cpu time spent up to now is      135.1 secs

     End of self-consistent calculation

          k = 0.0000 0.0000 0.0000 (  2503 PWs)   bands (ev):

   -17.2397 -12.1805 -11.8923 -10.2301  -9.2350  -4.6374  -3.8264  -2.8521
    -1.9531  -1.8894  -1.2289  -0.9990  -0.8079   1.3229   3.0145   4.2040
     5.6215   7.0408   9.7588  10.1115

          k = 0.0224 0.0914 0.8078 (  2486 PWs)   bands (ev):

   -16.1797 -11.7962 -11.1057  -9.3398  -8.3126  -6.1022  -5.8438  -4.9870
    -3.2850  -2.2112  -0.9932   0.2836   0.4604   0.9215   2.6278   3.5499
     4.3346   6.9829   9.3207  10.4853

          k =-0.0447-0.1829-1.6156 (  2500 PWs)   bands (ev):

   -13.8216 -12.4692  -9.2812  -9.2436  -8.5190  -8.3521  -6.0351  -5.5065
    -4.7402  -3.2717  -0.2316   0.8809   0.9827   2.4549   3.5787   3.6630
     4.6205   5.1144   5.3199   6.4807

          k = 0.0063-0.9350-0.1015 (  2474 PWs)   bands (ev):

   -16.3160 -15.0250 -11.8625  -8.9491  -6.0473  -4.7743  -4.6644  -4.6373
    -2.8134  -1.2490  -0.9867  -0.7230  -0.0472   0.6420   2.6471   3.8740
     5.2769   6.8031   8.7303  10.8579

          k = 0.0287-0.8435 0.7064 (  2482 PWs)   bands (ev):

   -15.5146 -13.7546 -11.0842  -8.6613  -6.6168  -6.2327  -6.1024  -4.5467
    -3.4608  -2.9770  -0.4801   0.0843   0.3108   0.8588   2.7463   3.3204
     3.6373   6.7439   9.2630  10.5160

          k =-0.0384-1.1178-1.7171 (  2472 PWs)   bands (ev):

   -13.9388 -10.7638 -10.5385 -10.1027  -9.2745  -8.5108  -6.2783  -4.5486
    -3.5504  -1.8132  -1.0873   0.3232   0.5498   2.4326   3.5447   3.6023
     4.8054   5.0163   5.2514   5.9698

          k =-0.5091 0.0072-0.0124 (  2488 PWs)   bands (ev):

   -17.2396 -12.1817 -11.8943 -10.2301  -9.2254  -4.6371  -3.8346  -2.8480
    -2.0910  -1.8584  -1.2793  -0.8671  -0.7833   1.4681   2.8820   4.1876
     5.6314   6.7869  10.0811  10.2686

          k =-0.4868 0.0986 0.7954 (  2457 PWs)   bands (ev):

   -16.1796 -11.7961 -11.1086  -9.3367  -8.3098  -6.1020  -5.8420  -4.9871
    -3.2798  -2.2292  -0.9957   0.0740   0.4751   1.2310   2.5996   3.5301
     4.2922   6.8872   9.3282  10.4909

          k =-0.5538-0.1757-1.6280 (  2478 PWs)   bands (ev):

   -13.8216 -12.4691  -9.2829  -9.2430  -8.5174  -8.3537  -6.0341  -5.5059
    -4.7388  -3.2681  -0.2362   0.8885   0.9933   2.3982   3.5136   3.6494
     4.7742   5.0965   5.3784   6.4502

          k =-0.5028-0.9278-0.1138 (  2490 PWs)   bands (ev):

   -16.3159 -15.0248 -11.8644  -8.9491  -6.0345  -4.7719  -4.6645  -4.6375
    -2.8080  -1.1595  -1.0897  -0.7080  -0.2020   0.6442   2.8592   3.9063
     5.2364   6.8936   8.6404  10.7863

          k =-0.4805-0.8363 0.6940 (  2495 PWs)   bands (ev):

   -15.5145 -13.7545 -11.0858  -8.6608  -6.6151  -6.2328  -6.1025  -4.5396
    -3.4584  -2.9759  -0.4817   0.1830   0.2207   0.7535   2.7235   3.3142
     3.8159   6.7729   9.1900  10.4982

          k =-0.5475-1.1107-1.7294 (  2464 PWs)   bands (ev):

   -13.9388 -10.7637 -10.5383 -10.1026  -9.2751  -8.5115  -6.2768  -4.5483
    -3.5507  -1.8111  -1.0850   0.3274   0.5490   2.4527   3.5398   3.5896
     4.6211   4.9645   5.3418   6.1323

     the Fermi energy is     3.8521 ev

!    total energy              =     -90.28995063 Ry
     Harris-Foulkes estimate   =     -90.28995128 Ry
     estimated scf accuracy    <       0.00000070 Ry

     The total energy is the sum of the following terms:

     one-electron contribution =     -95.31584665 Ry
     hartree contribution      =      60.32226742 Ry
     xc contribution           =     -27.50814437 Ry
     ewald contribution        =     -27.79096845 Ry
     smearing contrib. (-TS)   =       0.00274143 Ry

     convergence has been achieved in  34 iterations

     Forces acting on atoms (cartesian axes, Ry/au):

     atom    1 type  1   force =     0.00043193    0.00222519   -0.02101845
     atom    2 type  1   force =     0.00041835   -0.00304387    0.02180609
     atom    3 type  1   force =     0.01047213    0.02385871    0.01378357
     atom    4 type  1   force =    -0.00169310    0.00274266   -0.01458169
     atom    5 type  1   force =     0.02430642   -0.00594934    0.03057401
     atom    6 type  1   force =    -0.01085449   -0.02433129   -0.01435978
     atom    7 type  1   force =     0.00204698   -0.00257300    0.01378624
     atom    8 type  1   force =    -0.02512822    0.00707095   -0.02998999

     Total force =     0.079262     Total SCF correction =     0.001184


     Computing stress (Cartesian axis) and pressure

          total   stress  (Ry/bohr**3)                   (kbar)     P=       36.10
  -0.00015620   0.00002725  -0.00025562          -22.98        4.01      -37.60
   0.00002725   0.00042928   0.00005326            4.01       63.15        7.83
  -0.00025562   0.00005326   0.00046311          -37.60        7.83       68.13


     number of scf cycles    =   6
     number of bfgs steps    =   4

     enthalpy old            =     -90.2618083546 Ry
     enthalpy new            =     -90.2899095924 Ry

     CASE: enthalpy_new < enthalpy_old

     new trust radius        =       0.1759573845 bohr
     new conv_thr            =       0.0000003057 Ry

     new unit-cell volume =    611.17175 a.u.^3 (    90.56631 Ang^3 )
     density =      1.76017 g/cm^3

CELL_PARAMETERS (bohr)
  14.933547334   0.317180669  -0.790599150
   0.215603385   8.571180133  -1.182440613
  -0.226871702  -0.649178474   4.877494448

ATOMIC_POSITIONS (crystal)
C             0.0254772170        0.3014758769        0.5567139264
C             0.0240259942        0.2999039361        0.0259488235
C             0.4985182616        0.3914719739        0.0093501098
C             0.5906725927        0.9203125566        0.3306740639
C             0.3971607072        0.8419938482        0.6134298067
C             0.5346786833        0.0584365421       -0.1204157903
C             0.4425883006        0.5294652163        0.5582920788
C             0.6356472434        0.6080080498        0.2757279813



     Writing output data file ./pp.save/
     NEW-OLD atomic charge density approx. for the potential
     extrapolated charge   32.39469, renormalised to   32.00000

     total cpu time spent up to now is      135.2 secs

     Self-consistent Calculation

     iteration #  1     ecut=    40.00 Ry     beta= 0.50
     Davidson diagonalization with overlap
     c_bands:  1 eigenvalues not converged
     c_bands:  1 eigenvalues not converged
     c_bands:  1 eigenvalues not converged
     ethr =  1.00E-06,  avg # of iterations = 13.0

     total cpu time spent up to now is      144.8 secs

     total energy              =     -90.25956182 Ry
     Harris-Foulkes estimate   =     -89.27334838 Ry
     estimated scf accuracy    <       0.03922630 Ry

     iteration #  2     ecut=    40.00 Ry     beta= 0.50
     Davidson diagonalization with overlap
     ethr =  1.23E-04,  avg # of iterations =  7.0

     total cpu time spent up to now is      149.7 secs

     total energy              =     -90.25956636 Ry
     Harris-Foulkes estimate   =     -90.38084913 Ry
     estimated scf accuracy    <       0.92280297 Ry

     iteration #  3     ecut=    40.00 Ry     beta= 0.50
     Davidson diagonalization with overlap
     ethr =  1.23E-04,  avg # of iterations =  3.8

     total cpu time spent up to now is      152.7 secs

     total energy              =     -90.29838791 Ry
     Harris-Foulkes estimate   =     -90.30430112 Ry
     estimated scf accuracy    <       0.02089963 Ry

     iteration #  4     ecut=    40.00 Ry     beta= 0.50
     Davidson diagonalization with overlap
     ethr =  6.53E-05,  avg # of iterations =  1.4

     total cpu time spent up to now is      154.5 secs

     total energy              =     -90.29778961 Ry
     Harris-Foulkes estimate   =     -90.29989163 Ry
     estimated scf accuracy    <       0.00823246 Ry

     iteration #  5     ecut=    40.00 Ry     beta= 0.50
     Davidson diagonalization with overlap
     ethr =  2.57E-05,  avg # of iterations =  4.7

     total cpu time spent up to now is      157.9 secs

     total energy              =     -90.29778663 Ry
     Harris-Foulkes estimate   =     -90.29878218 Ry
     estimated scf accuracy    <       0.00354854 Ry

     iteration #  6     ecut=    40.00 Ry     beta= 0.50
     Davidson diagonalization with overlap
     ethr =  1.11E-05,  avg # of iterations =  3.8

     total cpu time spent up to now is      160.9 secs

     total energy              =     -90.29828775 Ry
     Harris-Foulkes estimate   =     -90.29844031 Ry
     estimated scf accuracy    <       0.00067987 Ry

[...]

     iteration #  3     ecut=    40.00 Ry     beta= 0.50
     Davidson diagonalization with overlap
     ethr =  1.54E-04,  avg # of iterations =  3.3

     total cpu time spent up to now is     2642.5 secs

     total energy              =     -90.34259419 Ry
     Harris-Foulkes estimate   =     -90.34673740 Ry
     estimated scf accuracy    <       0.01812031 Ry

     iteration #  4     ecut=    40.00 Ry     beta= 0.50
     Davidson diagonalization with overlap
     ethr =  5.66E-05,  avg # of iterations =  1.4

     total cpu time spent up to now is     2651.6 secs

     total energy              =     -90.34303806 Ry
     Harris-Foulkes estimate   =     -90.34404150 Ry
     estimated scf accuracy    <       0.00652169 Ry

     iteration #  5     ecut=    40.00 Ry     beta= 0.50
     Davidson diagonalization with overlap
     ethr =  2.04E-05,  avg # of iterations =  1.4

     total cpu time spent up to now is     2660.7 secs

     total energy              =     -90.34226015 Ry
     Harris-Foulkes estimate   =     -90.34329706 Ry
     estimated scf accuracy    <       0.00386531 Ry

     iteration #  6     ecut=    40.00 Ry     beta= 0.50
     Davidson diagonalization with overlap
     ethr =  1.21E-05,  avg # of iterations =  3.3

     total cpu time spent up to now is     2674.3 secs

     total energy              =     -90.34228798 Ry
     Harris-Foulkes estimate   =     -90.34254114 Ry
     estimated scf accuracy    <       0.00082220 Ry

     iteration #  7     ecut=    40.00 Ry     beta= 0.50
     Davidson diagonalization with overlap
     ethr =  2.57E-06,  avg # of iterations =  3.6

     total cpu time spent up to now is     2689.2 secs

     total energy              =     -90.34237628 Ry
     Harris-Foulkes estimate   =     -90.34240492 Ry
     estimated scf accuracy    <       0.00009577 Ry

     iteration #  8     ecut=    40.00 Ry     beta= 0.50
     Davidson diagonalization with overlap
     ethr =  2.99E-07,  avg # of iterations =  2.1

     total cpu time spent up to now is     2700.1 secs

     total energy              =     -90.34238857 Ry
     Harris-Foulkes estimate   =     -90.34239072 Ry
     estimated scf accuracy    <       0.00001029 Ry

     iteration #  9     ecut=    40.00 Ry     beta= 0.50
     Davidson diagonalization with overlap
     ethr =  3.22E-08,  avg # of iterations =  2.8

     total cpu time spent up to now is     2713.0 secs

     total energy              =     -90.34238878 Ry
     Harris-Foulkes estimate   =     -90.34238994 Ry
     estimated scf accuracy    <       0.00000306 Ry

     iteration # 10     ecut=    40.00 Ry     beta= 0.50
     Davidson diagonalization with overlap
     ethr =  9.57E-09,  avg # of iterations =  2.1

     total cpu time spent up to now is     2724.1 secs

     total energy              =     -90.34238922 Ry
     Harris-Foulkes estimate   =     -90.34238923 Ry
     estimated scf accuracy    <       0.00000007 Ry

     iteration # 11     ecut=    40.00 Ry     beta= 0.50
     Davidson diagonalization with overlap
     ethr =  2.04E-10,  avg # of iterations =  3.2

     total cpu time spent up to now is     2739.7 secs

     End of self-consistent calculation

          k = 0.0000 0.0000 0.0000 (  2503 PWs)   bands (ev):

   -15.8561 -10.8710 -10.4053  -8.5848  -6.3467  -2.9743  -2.0732  -1.6220
    -0.4194   0.1248   0.2293   1.0429   1.4709   2.9288   3.2833   5.0532
     7.3660  10.4118  11.1345  11.5432

          k =-0.0245 0.0853 0.7625 (  2486 PWs)   bands (ev):

   -14.9850 -10.5589  -9.6692  -7.8235  -6.1864  -4.6056  -4.1179  -3.9110
    -1.1764  -0.2298   1.0923   1.3589   1.9873   2.8640   4.0592   5.3596
     7.6097  10.2002  10.6036  10.9358

          k = 0.0491-0.1706-1.5250 (  2500 PWs)   bands (ev):

   -13.3559 -11.0502  -8.0755  -7.8057  -7.0084  -6.6451  -4.2596  -3.9196
    -2.6271  -1.4624   1.4992   2.2200   3.1219   3.6648   4.7013   5.1786
     6.0899   6.4657   9.0810   9.3256

          k = 0.1400-0.9352-0.0963 (  2474 PWs)   bands (ev):

   -15.2731 -13.0955 -10.3998  -5.8008  -3.8370  -3.5796  -3.4876  -2.9695
    -1.7045  -0.2905   0.1877   0.7215   2.1990   3.2075   4.1369   5.3657
     6.2186  10.0160  10.7394  11.2371

          k = 0.1155-0.8498 0.6662 (  2482 PWs)   bands (ev):

   -14.5566 -12.0673  -9.6621  -6.7534  -5.3675  -4.7203  -4.3794  -2.3046
    -1.9299  -1.2910   0.3559   1.3935   1.8701   2.8925   4.5015   5.3170
     7.0789  10.0637  10.6982  11.1118

          k = 0.1891-1.1058-1.6214 (  2472 PWs)   bands (ev):

   -13.3767  -9.6632  -9.0701  -8.7055  -7.9821  -6.9845  -3.5109  -2.8484
    -1.2821   0.3401   0.5949   1.2496   1.8998   3.4313   4.2613   4.6663
     6.0232   7.1776   8.7823  10.5179

          k =-0.6356 0.0754 0.0147 (  2488 PWs)   bands (ev):

   -15.8529 -10.8865 -10.4379  -8.5860  -6.1484  -2.9741  -2.0680  -1.6140
    -1.0577   0.0881   0.3110   0.8678   1.6983   3.1166   3.8193   5.4315
     6.6376  10.0134  10.9795  11.0683

          k =-0.6601 0.1607 0.7772 (  2457 PWs)   bands (ev):

   -14.9823 -10.5625  -9.7012  -7.8229  -6.1291  -4.6211  -4.0491  -3.8454
    -1.1258  -0.5402   0.8907   1.2796   1.9303   3.2258   4.2471   5.5354
     7.3730  10.2942  10.6013  10.8742

          k =-0.5865-0.0953-1.5104 (  2478 PWs)   bands (ev):

   -13.3556 -11.0439  -8.0729  -7.8277  -7.0177  -6.6616  -4.2549  -3.9188
    -2.6009  -1.2957   1.5364   2.3285   2.9682   3.5040   4.3700   4.6657
     6.0698   7.2972   9.1980   9.4646

          k =-0.4956-0.8598-0.0816 (  2490 PWs)   bands (ev):

   -15.2743 -13.0884 -10.4050  -5.9205  -3.7997  -3.5559  -3.4452  -2.9666
    -1.3524  -0.2925   0.3396   0.5827   2.0427   2.4790   4.1296   4.9928
     7.3310   9.9328  10.8261  11.2905

          k =-0.5201-0.7745 0.6809 (  2495 PWs)   bands (ev):

   -14.5569 -12.0617  -9.6714  -6.7609  -5.3630  -4.7316  -4.4204  -2.3242
    -1.8788  -1.1229   0.4913   1.4540   1.7953   2.5080   4.3650   5.1343
     7.5917  10.0574  10.5839  10.9993

          k =-0.4465-1.0305-1.6067 (  2464 PWs)   bands (ev):

   -13.3759  -9.6698  -9.0653  -8.6982  -7.9923  -6.9856  -3.4864  -2.8490
    -1.3403   0.2949   0.6213   1.2249   1.9991   3.4171   4.5604   4.9557
     5.9457   6.2713   9.0748  10.2652

     the Fermi energy is     5.6610 ev

!    total energy              =     -90.34238924 Ry
     Harris-Foulkes estimate   =     -90.34238925 Ry
     estimated scf accuracy    <       0.00000001 Ry

     The total energy is the sum of the following terms:

     one-electron contribution =     -59.52221039 Ry
     hartree contribution      =      44.36195237 Ry
     xc contribution           =     -27.62506218 Ry
     ewald contribution        =     -47.55958921 Ry
     smearing contrib. (-TS)   =       0.00252016 Ry

     convergence has been achieved in  11 iterations

     Forces acting on atoms (cartesian axes, Ry/au):

     atom    1 type  1   force =     0.02673293   -0.00917692   -0.02350365
     atom    2 type  1   force =    -0.02828659    0.00413615    0.02446660
     atom    3 type  1   force =    -0.00645598   -0.00707065    0.01278907
     atom    4 type  1   force =    -0.00071901    0.02200778    0.00753038
     atom    5 type  1   force =    -0.02132894    0.00874403    0.00475023
     atom    6 type  1   force =     0.00575376    0.00107824   -0.00661808
     atom    7 type  1   force =     0.00313452   -0.01360491   -0.01135801
     atom    8 type  1   force =     0.02116931   -0.00611372   -0.00805655

     Total force =     0.071206     Total SCF correction =     0.000170


     Computing stress (Cartesian axis) and pressure

          total   stress  (Ry/bohr**3)                   (kbar)     P=        7.28
   0.00011626  -0.00001178   0.00002510           17.10       -1.73        3.69
  -0.00001178   0.00002528   0.00001445           -1.73        3.72        2.13
   0.00002510   0.00001445   0.00000692            3.69        2.13        1.02


     number of scf cycles    =  40
     number of bfgs steps    =  37

     enthalpy old            =     -90.3417439781 Ry
     enthalpy new            =     -90.3423538495 Ry

     CASE: enthalpy_new < enthalpy_old


     WARNING: bfgs curvature condition failed, Theta= 0.000
     new trust radius        =       0.1632347261 bohr
     new conv_thr            =       0.0000000610 Ry

     new unit-cell volume =    503.72923 a.u.^3 (    74.64497 Ang^3 )
     density =      2.13560 g/cm^3

CELL_PARAMETERS (bohr)
  12.034131842   2.101458429   0.279249103
   1.118961592   8.491679668  -0.928578422
   0.083809118  -0.520934541   5.109004290

ATOMIC_POSITIONS (crystal)
C            -0.0175733646        0.2977195905        0.6148469507
C            -0.0318654147        0.3093498599        0.0899400153
C             0.5094741030        0.3984912448       -0.0232837222
C             0.6152697638        0.8788643526        0.2867081319
C             0.4067231584        0.9042147224        0.5974075673
C             0.5552185316        0.0490882983       -0.1308797059
C             0.4524717397        0.5681992773        0.5631691330
C             0.6590504826        0.5451406542        0.2518126300



     Writing output data file ./pp.save/
     NEW-OLD atomic charge density approx. for the potential
     extrapolated charge   30.92496, renormalised to   32.00000

     total cpu time spent up to now is     2740.2 secs

     Self-consistent Calculation

     iteration #  1     ecut=    40.00 Ry     beta= 0.50
     Davidson diagonalization with overlap
     ethr =  1.00E-06,  avg # of iterations = 16.2

     total cpu time spent up to now is     2796.3 secs

     total energy              =     -90.21695661 Ry
     Harris-Foulkes estimate   =     -92.00781836 Ry
     estimated scf accuracy    <       0.12191678 Ry

     iteration #  2     ecut=    40.00 Ry     beta= 0.50
     Davidson diagonalization with overlap
     ethr =  3.81E-04,  avg # of iterations =  5.3

     total cpu time spent up to now is     2818.0 secs

     total energy              =     -90.31348505 Ry
     Harris-Foulkes estimate   =     -90.47962701 Ry
     estimated scf accuracy    <       0.66236569 Ry

     iteration #  3     ecut=    40.00 Ry     beta= 0.50
     Davidson diagonalization with overlap
     ethr =  3.81E-04,  avg # of iterations =  3.9

     total cpu time spent up to now is     2833.7 secs

     total energy              =     -90.34689402 Ry
     Harris-Foulkes estimate   =     -90.35507733 Ry
     estimated scf accuracy    <       0.04832145 Ry

     iteration #  4     ecut=    40.00 Ry     beta= 0.50
     Davidson diagonalization with overlap
     ethr =  1.51E-04,  avg # of iterations =  1.2

     total cpu time spent up to now is     2847.2 secs

     total energy              =     -90.34360607 Ry
     Harris-Foulkes estimate   =     -90.34928568 Ry
     estimated scf accuracy    <       0.03066652 Ry

     iteration #  5     ecut=    40.00 Ry     beta= 0.50
     Davidson diagonalization with overlap
     ethr =  9.58E-05,  avg # of iterations =  1.1

     total cpu time spent up to now is     2855.8 secs

     total energy              =     -90.34445545 Ry
     Harris-Foulkes estimate   =     -90.34560628 Ry
     estimated scf accuracy    <       0.00552453 Ry

     iteration #  6     ecut=    40.00 Ry     beta= 0.50
     Davidson diagonalization with overlap
     ethr =  1.73E-05,  avg # of iterations =  4.2

     total cpu time spent up to now is     2871.6 secs

     total energy              =     -90.34426353 Ry
     Harris-Foulkes estimate   =     -90.34486120 Ry
     estimated scf accuracy    <       0.00204835 Ry

     iteration #  7     ecut=    40.00 Ry     beta= 0.50
     Davidson diagonalization with overlap
     ethr =  6.40E-06,  avg # of iterations =  2.3

     total cpu time spent up to now is     2883.5 secs

     total energy              =     -90.34440556 Ry
     Harris-Foulkes estimate   =     -90.34448327 Ry
     estimated scf accuracy    <       0.00020961 Ry

     iteration #  8     ecut=    40.00 Ry     beta= 0.50
     Davidson diagonalization with overlap
     ethr =  6.55E-07,  avg # of iterations =  3.8

     total cpu time spent up to now is     2900.1 secs

     total energy              =     -90.34447106 Ry
     Harris-Foulkes estimate   =     -90.34447511 Ry
     estimated scf accuracy    <       0.00002741 Ry

     iteration #  9     ecut=    40.00 Ry     beta= 0.50
     Davidson diagonalization with overlap
     ethr =  8.57E-08,  avg # of iterations =  1.1

     total cpu time spent up to now is     2909.0 secs

     total energy              =     -90.34446896 Ry
     Harris-Foulkes estimate   =     -90.34447258 Ry
     estimated scf accuracy    <       0.00001383 Ry

     iteration # 10     ecut=    40.00 Ry     beta= 0.50
     Davidson diagonalization with overlap
     ethr =  4.32E-08,  avg # of iterations =  1.5

     total cpu time spent up to now is     2919.0 secs

     total energy              =     -90.34447036 Ry
     Harris-Foulkes estimate   =     -90.34447049 Ry
     estimated scf accuracy    <       0.00000045 Ry

     iteration # 11     ecut=    40.00 Ry     beta= 0.50
     Davidson diagonalization with overlap
     ethr =  1.41E-09,  avg # of iterations =  3.0

     total cpu time spent up to now is     2934.3 secs

     End of self-consistent calculation

          k = 0.0000 0.0000 0.0000 (  2503 PWs)   bands (ev):

   -15.5019 -10.6076 -10.2594  -8.1860  -6.0177  -2.7562  -1.7276  -1.2397
    -0.3190   0.3968   0.5430   1.4665   1.9576   3.3580   3.7594   5.4258
     8.0715  10.7064  11.5573  11.9587

          k =-0.0331 0.0879 0.7640 (  2486 PWs)   bands (ev):

   -14.6271 -10.2320  -9.5648  -7.4167  -5.8386  -4.4371  -3.7858  -3.5150
    -0.8598   0.0178   1.3478   1.5713   2.3094   3.3403   4.5667   5.7714
     8.1907  10.4006  10.8892  11.3967

          k = 0.0662-0.1758-1.5279 (  2500 PWs)   bands (ev):

   -12.9889 -10.6851  -7.9511  -7.4300  -6.9187  -6.2568  -3.8916  -3.5365
    -2.2638  -1.1995   1.8282   2.5576   3.1065   3.9007   5.0326   5.5558
     6.3025   7.0121   9.6162  10.3582

          k = 0.1665-0.9406-0.0986 (  2474 PWs)   bands (ev):

   -14.9368 -12.7077 -10.3422  -5.4097  -3.4537  -3.2815  -3.1089  -2.7444
    -1.5724  -0.0944   0.5958   1.0336   2.5737   3.8984   4.5216   5.8468
     6.8961  10.3552  11.0212  11.6977

          k = 0.1335-0.8527 0.6653 (  2482 PWs)   bands (ev):

   -14.2119 -11.6811  -9.5914  -6.3824  -4.9810  -4.5350  -3.9911  -1.9582
    -1.6360  -0.9871   0.4469   1.7137   2.2072   3.3158   4.9094   5.7949
     7.8023  10.3206  10.9772  11.5971

          k = 0.2327-1.1164-1.6266 (  2472 PWs)   bands (ev):

   -13.0131  -9.3462  -8.7116  -8.2780  -7.8198  -6.8943  -3.1327  -2.4978
    -0.9048   0.5395   0.9792   1.5159   2.2881   3.3780   4.4984   4.9904
     6.2721   7.7611   9.8399  11.1116

          k =-0.6565 0.0887 0.0198 (  2488 PWs)   bands (ev):

   -15.4960 -10.6722 -10.2630  -8.1856  -5.7163  -2.7600  -1.7270  -1.3883
    -0.9656   0.3774   0.6786   1.2648   2.1768   3.4440   4.4512   5.9618
     7.1944  10.4131  11.3042  11.4163

          k =-0.6896 0.1766 0.7838 (  2457 PWs)   bands (ev):

   -14.6222 -10.2495  -9.5966  -7.4152  -5.7541  -4.4607  -3.6608  -3.4384
    -0.8109  -0.4747   1.1798   1.6125   2.2254   3.6573   4.7719   5.8983
     8.0115  10.6148  10.8364  11.3120

          k =-0.5904-0.0871-1.5081 (  2478 PWs)   bands (ev):

   -12.9887 -10.6728  -7.9625  -7.4502  -6.9388  -6.2706  -3.8916  -3.5345
    -2.2390  -0.9367   1.8973   2.6915   2.8507   3.6904   4.7112   4.9863
     6.2711   7.9137   9.6404  10.4235

          k =-0.4900-0.8519-0.0788 (  2490 PWs)   bands (ev):

   -14.9400 -12.6952 -10.3410  -5.6246  -3.4195  -3.2045  -3.0744  -2.7393
    -1.0454  -0.0948   0.6322   0.9250   2.4341   3.0891   4.4884   5.3569
     8.1360  10.2712  11.0564  11.8168

          k =-0.5231-0.7640 0.6851 (  2495 PWs)   bands (ev):

   -14.2131 -11.6717  -9.5985  -6.3973  -4.9739  -4.5499  -4.0720  -1.9938
    -1.5619  -0.7401   0.6008   1.7315   2.1111   2.9674   4.7871   5.5900
     8.2101  10.3316  10.8211  11.5475

          k =-0.4239-1.0277-1.6068 (  2464 PWs)   bands (ev):

   -13.0114  -9.3647  -8.7012  -8.2688  -7.8247  -6.8922  -3.0883  -2.4994
    -1.0169   0.4551   1.0127   1.4813   2.4076   3.4226   4.8722   5.2836
     6.1853   6.8471  10.1356  10.7350

     the Fermi energy is     6.0649 ev

!    total energy              =     -90.34447051 Ry
     Harris-Foulkes estimate   =     -90.34447052 Ry
     estimated scf accuracy    <       0.00000002 Ry

     The total energy is the sum of the following terms:

     one-electron contribution =     -55.00680219 Ry
     hartree contribution      =      42.51935109 Ry
     xc contribution           =     -27.68440635 Ry
     ewald contribution        =     -50.17380572 Ry
     smearing contrib. (-TS)   =       0.00119265 Ry

     convergence has been achieved in  11 iterations

     Forces acting on atoms (cartesian axes, Ry/au):

     atom    1 type  1   force =     0.06265888   -0.02117137   -0.05150140
     atom    2 type  1   force =    -0.05894266    0.00721170    0.05689438
     atom    3 type  1   force =    -0.02064639   -0.01184771    0.02259596
     atom    4 type  1   force =    -0.00252044    0.03825426    0.01551842
     atom    5 type  1   force =    -0.04670474    0.02229682    0.00492162
     atom    6 type  1   force =     0.01319262    0.00311317   -0.01025722
     atom    7 type  1   force =    -0.00349952   -0.02388220   -0.01833801
     atom    8 type  1   force =     0.05646224   -0.01397468   -0.01983376

     Total force =     0.155772     Total SCF correction =     0.000292


     Computing stress (Cartesian axis) and pressure

          total   stress  (Ry/bohr**3)                   (kbar)     P=       19.02
   0.00027316  -0.00002866   0.00002673           40.18       -4.22        3.93
  -0.00002866   0.00007891   0.00003044           -4.22       11.61        4.48
   0.00002673   0.00003044   0.00003586            3.93        4.48        5.27


     number of scf cycles    =  41
     number of bfgs steps    =  38

     enthalpy old            =     -90.3423538495 Ry
     enthalpy new            =     -90.3444362707 Ry

     CASE: enthalpy_new < enthalpy_old


     WARNING: bfgs curvature condition failed, Theta= 0.000
     new trust radius        =       0.2511505564 bohr
     new conv_thr            =       0.0000002082 Ry

     new unit-cell volume =    477.55917 a.u.^3 (    70.76697 Ang^3 )
     density =      2.25263 g/cm^3

CELL_PARAMETERS (bohr)
  11.559847554   2.509214635   0.409323597
   1.320212160   8.500846706  -0.944774839
   0.124448499  -0.524805280   5.100293778

ATOMIC_POSITIONS (crystal)
C            -0.0275301333        0.2964375814        0.6255767709
C            -0.0475550921        0.3131588681        0.1059450192
C             0.5132876028        0.4001916901       -0.0272738425
C             0.6223857550        0.8682640593        0.2755667120
C             0.4038177599        0.9170677392        0.6028910420
C             0.5591488949        0.0465195310       -0.1363982222
C             0.4546261700        0.5774170806        0.5663051961
C             0.6705880428        0.5320114502        0.2371083246



     Writing output data file ./pp.save/
     NEW-OLD atomic charge density approx. for the potential
     extrapolated charge   30.24643, renormalised to   32.00000

     total cpu time spent up to now is     2934.8 secs

     Self-consistent Calculation

     iteration #  1     ecut=    40.00 Ry     beta= 0.50
     Davidson diagonalization with overlap
     ethr =  1.00E-06,  avg # of iterations = 16.8

     total cpu time spent up to now is     2996.3 secs

     total energy              =     -90.03521956 Ry
     Harris-Foulkes estimate   =     -92.81911927 Ry
     estimated scf accuracy    <       0.29584938 Ry

     iteration #  2     ecut=    40.00 Ry     beta= 0.50
     Davidson diagonalization with overlap
