
     Program PWSCF v.6.5 starts on  7Jul2022 at  7:14:18 

     This program is part of the open-source Quantum ESPRESSO suite
     for quantum simulation of materials; please cite
         "P. Giannozzi et al., J. Phys.:Condens. Matter 21 395502 (2009);
         "P. Giannozzi et al., J. Phys.:Condens. Matter 29 465901 (2017);
          URL http://www.quantum-espresso.org", 
     in publications or presentations arising from this work. More details at
     http://www.quantum-espresso.org/quote

     Parallel version (MPI), running on    96 processors

     MPI processes distributed on     2 nodes
     R & G space division:  proc/nbgrp/npool/nimage =      96
     Waiting for input...
     Reading input from standard input
     Message from routine read_cards :
     DEPRECATED: no units specified in CELL_PARAMETERS card

     Current dimensions of program PWSCF are:
     Max number of different atomic species (ntypx) = 10
     Max number of k-points (npk) =  40000
     Max angular momentum in pseudopotentials (lmaxx) =  3

     Subspace diagonalization in iterative solution of the eigenvalue problem:
     one sub-group per band group will be used
     scalapack distributed-memory algorithm (size of sub-group:  9*  9 procs)

 
     Parallelization info
     --------------------
     sticks:   dense  smooth     PW     G-vecs:    dense   smooth      PW
     Min          16      16      5                  206      206      35
     Max          17      17      6                  208      208      37
     Sum        1557    1557    485                19919    19919    3515
 


     bravais-lattice index     =            0
     lattice parameter (alat)  =      11.5868  a.u.
     unit-cell volume          =     582.9497 (a.u.)^3
     number of atoms/cell      =            8
     number of atomic types    =            1
     number of electrons       =        32.00
     number of Kohn-Sham states=           20
     kinetic-energy cutoff     =      40.0000  Ry
     charge density cutoff     =     160.0000  Ry
     convergence threshold     =      1.0E-08
     mixing beta               =       0.5000
     number of iterations used =            8  plain     mixing
     Exchange-correlation=  SLA  PW   PBE  PBE
                           (   1   4   3   4   0   0   0)
     nstep                     =          250


     celldm(1)=  11.586800  celldm(2)=   0.000000  celldm(3)=   0.000000
     celldm(4)=   0.000000  celldm(5)=   0.000000  celldm(6)=   0.000000

     crystal axes: (cart. coord. in units of alat)
               a(1) = (   1.000000   0.000000   0.000000 )  
               a(2) = (   0.000000   0.905556   0.000000 )  
               a(3) = (   0.000000   0.000000   0.413833 )  

     reciprocal axes: (cart. coord. in units 2 pi/alat)
               b(1) = (  1.000000  0.000000  0.000000 )  
               b(2) = (  0.000000  1.104294  0.000000 )  
               b(3) = (  0.000000  0.000000  2.416434 )  


     PseudoPot. # 1 for C  read from file:
     ./C.pbe-van_bm.upf
     MD5 check sum: 1a69bf6b8db32088f5b2163dbdb77a27
     Pseudo is Ultrasoft, Zval =  4.0
     Generated by new atomic code, or converted to UPF format
     Using radial grid of  721 points,  4 beta functions with: 
                l(1) =   0
                l(2) =   0
                l(3) =   1
                l(4) =   1
     Q(r) pseudized with  8 coefficients,  rinner =    0.800   0.800   0.800


     atomic species   valence    mass     pseudopotential
        C              4.00    12.00000     C ( 1.00)

     No symmetry found



   Cartesian axes

     site n.     atom                  positions (alat units)
         1           C   tau(   1) = (   0.5000000   0.4527863  -0.0000017  )
         2           C   tau(   2) = (   0.0000000   0.0000054   0.1034553  )
         3           C   tau(   3) = (   0.5000000   0.0000082  -0.0000008  )
         4           C   tau(   4) = (  -0.0000010   0.4527582   0.1034553  )
         5           C   tau(   5) = (   0.5000000   0.4527863   0.2069161  )
         6           C   tau(   6) = (   0.0000000  -0.0000217   0.3103785  )
         7           C   tau(   7) = (  -0.0000010   0.4527827   0.3103797  )
         8           C   tau(   8) = (   0.5000000   0.0000072   0.2069161  )

     number of k points=    12  Marzari-Vanderbilt smearing, width (Ry)=  0.0200
                       cart. coord. in units 2pi/alat
        k(    1) = (   0.0000000   0.0000000   0.0000000), wk =   0.1250000
        k(    2) = (   0.0000000   0.0000000   0.6041084), wk =   0.2500000
        k(    3) = (   0.0000000   0.0000000  -1.2082169), wk =   0.1250000
        k(    4) = (   0.0000000  -0.5521468   0.0000000), wk =   0.1250000
        k(    5) = (   0.0000000  -0.5521468   0.6041084), wk =   0.2500000
        k(    6) = (   0.0000000  -0.5521468  -1.2082169), wk =   0.1250000
        k(    7) = (  -0.5000000   0.0000000   0.0000000), wk =   0.1250000
        k(    8) = (  -0.5000000   0.0000000   0.6041084), wk =   0.2500000
        k(    9) = (  -0.5000000   0.0000000  -1.2082169), wk =   0.1250000
        k(   10) = (  -0.5000000  -0.5521468   0.0000000), wk =   0.1250000
        k(   11) = (  -0.5000000  -0.5521468   0.6041084), wk =   0.2500000
        k(   12) = (  -0.5000000  -0.5521468  -1.2082169), wk =   0.1250000

     Dense  grid:    19919 G-vectors     FFT dimensions: (  48,  45,  20)

     Estimated max dynamical RAM per process >       1.37 MB

     Estimated total dynamical RAM >     131.99 MB

     Initial potential from superposition of free atoms

     starting charge   31.99968, renormalised to   32.00000
     Starting wfcs are   32 randomized atomic wfcs

     total cpu time spent up to now is        1.7 secs

     Self-consistent Calculation

     iteration #  1     ecut=    40.00 Ry     beta= 0.50
     Davidson diagonalization with overlap
     ethr =  1.00E-02,  avg # of iterations =  2.1

     total cpu time spent up to now is        2.3 secs

     total energy              =     -90.34609779 Ry
     Harris-Foulkes estimate   =     -90.84996894 Ry
     estimated scf accuracy    <       0.97208363 Ry

     iteration #  2     ecut=    40.00 Ry     beta= 0.50
     Davidson diagonalization with overlap
     ethr =  3.04E-03,  avg # of iterations =  2.0

     total cpu time spent up to now is        2.9 secs

     total energy              =     -90.39912401 Ry
     Harris-Foulkes estimate   =     -90.43489255 Ry
     estimated scf accuracy    <       0.06880868 Ry

     iteration #  3     ecut=    40.00 Ry     beta= 0.50
     Davidson diagonalization with overlap
     ethr =  2.15E-04,  avg # of iterations =  2.2

     total cpu time spent up to now is        3.6 secs

     total energy              =     -90.40828061 Ry
     Harris-Foulkes estimate   =     -90.41197053 Ry
     estimated scf accuracy    <       0.00898606 Ry

     iteration #  4     ecut=    40.00 Ry     beta= 0.50
     Davidson diagonalization with overlap
     ethr =  2.81E-05,  avg # of iterations =  4.4

     total cpu time spent up to now is        4.5 secs

     total energy              =     -90.40325139 Ry
     Harris-Foulkes estimate   =     -90.42093983 Ry
     estimated scf accuracy    <       0.18079692 Ry

     iteration #  5     ecut=    40.00 Ry     beta= 0.50
     Davidson diagonalization with overlap
     ethr =  2.81E-05,  avg # of iterations =  3.0

     total cpu time spent up to now is        5.2 secs

     total energy              =     -90.41113994 Ry
     Harris-Foulkes estimate   =     -90.41209611 Ry
     estimated scf accuracy    <       0.00854952 Ry

     iteration #  6     ecut=    40.00 Ry     beta= 0.50
     Davidson diagonalization with overlap
     ethr =  2.67E-05,  avg # of iterations =  1.1

     total cpu time spent up to now is        5.6 secs

     total energy              =     -90.41144401 Ry
     Harris-Foulkes estimate   =     -90.41153232 Ry
     estimated scf accuracy    <       0.00081312 Ry

     iteration #  7     ecut=    40.00 Ry     beta= 0.50
     Davidson diagonalization with overlap
     ethr =  2.54E-06,  avg # of iterations =  3.9

     total cpu time spent up to now is        6.3 secs

     total energy              =     -90.41148899 Ry
     Harris-Foulkes estimate   =     -90.41163451 Ry
     estimated scf accuracy    <       0.00244864 Ry

     iteration #  8     ecut=    40.00 Ry     beta= 0.50
     Davidson diagonalization with overlap
     ethr =  2.54E-06,  avg # of iterations =  1.4

     total cpu time spent up to now is        6.8 secs

     total energy              =     -90.41139860 Ry
     Harris-Foulkes estimate   =     -90.41154074 Ry
     estimated scf accuracy    <       0.00087532 Ry

     iteration #  9     ecut=    40.00 Ry     beta= 0.50
     Davidson diagonalization with overlap
     ethr =  2.54E-06,  avg # of iterations =  1.3

     total cpu time spent up to now is        7.3 secs

     total energy              =     -90.41147277 Ry
     Harris-Foulkes estimate   =     -90.41147149 Ry
     estimated scf accuracy    <       0.00003154 Ry

     iteration # 10     ecut=    40.00 Ry     beta= 0.50
     Davidson diagonalization with overlap
     ethr =  9.86E-08,  avg # of iterations =  3.8

     total cpu time spent up to now is        8.0 secs

     total energy              =     -90.41152613 Ry
     Harris-Foulkes estimate   =     -90.41167775 Ry
     estimated scf accuracy    <       0.00283724 Ry

     iteration # 11     ecut=    40.00 Ry     beta= 0.50
     Davidson diagonalization with overlap
     ethr =  9.86E-08,  avg # of iterations =  2.3

     total cpu time spent up to now is        8.6 secs

     total energy              =     -90.41140906 Ry
     Harris-Foulkes estimate   =     -90.41155255 Ry
     estimated scf accuracy    <       0.00112023 Ry

     iteration # 12     ecut=    40.00 Ry     beta= 0.50
     Davidson diagonalization with overlap
     ethr =  9.86E-08,  avg # of iterations =  2.5

     total cpu time spent up to now is        9.2 secs

     total energy              =     -90.41147370 Ry
     Harris-Foulkes estimate   =     -90.41147190 Ry
     estimated scf accuracy    <       0.00000922 Ry

     iteration # 13     ecut=    40.00 Ry     beta= 0.50
     Davidson diagonalization with overlap
     ethr =  2.88E-08,  avg # of iterations =  2.6

     total cpu time spent up to now is       10.6 secs

     total energy              =     -90.41151813 Ry
     Harris-Foulkes estimate   =     -90.41152139 Ry
     estimated scf accuracy    <       0.00045689 Ry

     iteration # 14     ecut=    40.00 Ry     beta= 0.50
     Davidson diagonalization with overlap
     ethr =  2.88E-08,  avg # of iterations =  1.0

     total cpu time spent up to now is       11.0 secs

     total energy              =     -90.41151949 Ry
     Harris-Foulkes estimate   =     -90.41151821 Ry
     estimated scf accuracy    <       0.00041651 Ry

     iteration # 15     ecut=    40.00 Ry     beta= 0.50
     Davidson diagonalization with overlap
     ethr =  2.88E-08,  avg # of iterations =  1.0

     total cpu time spent up to now is       11.4 secs

     total energy              =     -90.41154455 Ry
     Harris-Foulkes estimate   =     -90.41151953 Ry
     estimated scf accuracy    <       0.00043192 Ry

     iteration # 16     ecut=    40.00 Ry     beta= 0.50
     Davidson diagonalization with overlap
     ethr =  2.88E-08,  avg # of iterations =  1.8

     total cpu time spent up to now is       12.0 secs

     total energy              =     -90.41155125 Ry
     Harris-Foulkes estimate   =     -90.41154920 Ry
     estimated scf accuracy    <       0.00084026 Ry

     iteration # 17     ecut=    40.00 Ry     beta= 0.50
     Davidson diagonalization with overlap
     ethr =  2.88E-08,  avg # of iterations =  1.0

     total cpu time spent up to now is       12.4 secs

     total energy              =     -90.41154984 Ry
     Harris-Foulkes estimate   =     -90.41155127 Ry
     estimated scf accuracy    <       0.00086593 Ry

     iteration # 18     ecut=    40.00 Ry     beta= 0.50
     Davidson diagonalization with overlap
     ethr =  2.88E-08,  avg # of iterations =  1.0

     total cpu time spent up to now is       12.8 secs

     total energy              =     -90.41154608 Ry
     Harris-Foulkes estimate   =     -90.41154985 Ry
     estimated scf accuracy    <       0.00084952 Ry

     iteration # 19     ecut=    40.00 Ry     beta= 0.50
     Davidson diagonalization with overlap
     ethr =  2.88E-08,  avg # of iterations =  1.9

     total cpu time spent up to now is       13.4 secs

     total energy              =     -90.41154576 Ry
     Harris-Foulkes estimate   =     -90.41154613 Ry
     estimated scf accuracy    <       0.00080208 Ry

     iteration # 20     ecut=    40.00 Ry     beta= 0.50
     Davidson diagonalization with overlap
     ethr =  2.88E-08,  avg # of iterations =  1.0

     total cpu time spent up to now is       13.8 secs

     total energy              =     -90.41154981 Ry
     Harris-Foulkes estimate   =     -90.41154576 Ry
     estimated scf accuracy    <       0.00079726 Ry

     iteration # 21     ecut=    40.00 Ry     beta= 0.50
     Davidson diagonalization with overlap
     ethr =  2.88E-08,  avg # of iterations =  1.0

     total cpu time spent up to now is       14.2 secs

     total energy              =     -90.41142776 Ry
     Harris-Foulkes estimate   =     -90.41154987 Ry
     estimated scf accuracy    <       0.00084529 Ry

     iteration # 22     ecut=    40.00 Ry     beta= 0.50
     Davidson diagonalization with overlap
     ethr =  2.88E-08,  avg # of iterations =  3.5

     total cpu time spent up to now is       15.1 secs

     total energy              =     -90.41149529 Ry
     Harris-Foulkes estimate   =     -90.41150615 Ry
     estimated scf accuracy    <       0.00013705 Ry

     iteration # 23     ecut=    40.00 Ry     beta= 0.50
     Davidson diagonalization with overlap
     ethr =  2.88E-08,  avg # of iterations =  2.3

     total cpu time spent up to now is       15.7 secs

     total energy              =     -90.41149227 Ry
     Harris-Foulkes estimate   =     -90.41149752 Ry
     estimated scf accuracy    <       0.00006030 Ry

     iteration # 24     ecut=    40.00 Ry     beta= 0.50
     Davidson diagonalization with overlap
     ethr =  2.88E-08,  avg # of iterations =  1.5

     total cpu time spent up to now is       16.2 secs

     total energy              =     -90.41149068 Ry
     Harris-Foulkes estimate   =     -90.41149339 Ry
     estimated scf accuracy    <       0.00001737 Ry

     iteration # 25     ecut=    40.00 Ry     beta= 0.50
     Davidson diagonalization with overlap
     ethr =  2.88E-08,  avg # of iterations =  1.5

     total cpu time spent up to now is       16.7 secs

     total energy              =     -90.41149159 Ry
     Harris-Foulkes estimate   =     -90.41149181 Ry
     estimated scf accuracy    <       0.00000102 Ry

     iteration # 26     ecut=    40.00 Ry     beta= 0.50
     Davidson diagonalization with overlap
     ethr =  3.18E-09,  avg # of iterations =  3.4

     total cpu time spent up to now is       17.5 secs

     total energy              =     -90.41149235 Ry
     Harris-Foulkes estimate   =     -90.41150258 Ry
     estimated scf accuracy    <       0.00037557 Ry

     iteration # 27     ecut=    40.00 Ry     beta= 0.50
     Davidson diagonalization with overlap
     ethr =  3.18E-09,  avg # of iterations =  2.5

     total cpu time spent up to now is       18.2 secs

     total energy              =     -90.41149700 Ry
     Harris-Foulkes estimate   =     -90.41149311 Ry
     estimated scf accuracy    <       0.00025868 Ry

     iteration # 28     ecut=    40.00 Ry     beta= 0.50
     Davidson diagonalization with overlap
     ethr =  3.18E-09,  avg # of iterations =  1.6

     total cpu time spent up to now is       18.8 secs

     total energy              =     -90.41149843 Ry
     Harris-Foulkes estimate   =     -90.41149716 Ry
     estimated scf accuracy    <       0.00030799 Ry

     iteration # 29     ecut=    40.00 Ry     beta= 0.50
     Davidson diagonalization with overlap
     ethr =  3.18E-09,  avg # of iterations =  1.0

     total cpu time spent up to now is       19.2 secs

     total energy              =     -90.41146197 Ry
     Harris-Foulkes estimate   =     -90.41149844 Ry
     estimated scf accuracy    <       0.00032252 Ry

     iteration # 30     ecut=    40.00 Ry     beta= 0.50
     Davidson diagonalization with overlap
     ethr =  3.18E-09,  avg # of iterations =  4.4

     total cpu time spent up to now is       20.3 secs

     total energy              =     -90.41152896 Ry
     Harris-Foulkes estimate   =     -90.41154743 Ry
     estimated scf accuracy    <       0.00103881 Ry

     iteration # 31     ecut=    40.00 Ry     beta= 0.50
     Davidson diagonalization with overlap
     ethr =  3.18E-09,  avg # of iterations =  2.5

     total cpu time spent up to now is       21.0 secs

     total energy              =     -90.41155385 Ry
     Harris-Foulkes estimate   =     -90.41153018 Ry
     estimated scf accuracy    <       0.00079508 Ry

     iteration # 32     ecut=    40.00 Ry     beta= 0.50
     Davidson diagonalization with overlap
     ethr =  3.18E-09,  avg # of iterations =  2.5

     total cpu time spent up to now is       21.8 secs

     total energy              =     -90.41154206 Ry
     Harris-Foulkes estimate   =     -90.41155634 Ry
     estimated scf accuracy    <       0.00116244 Ry

     iteration # 33     ecut=    40.00 Ry     beta= 0.50
     Davidson diagonalization with overlap
     ethr =  3.18E-09,  avg # of iterations =  2.5

     total cpu time spent up to now is       22.5 secs

     total energy              =     -90.41155405 Ry
     Harris-Foulkes estimate   =     -90.41154276 Ry
     estimated scf accuracy    <       0.00097057 Ry

     iteration # 34     ecut=    40.00 Ry     beta= 0.50
     Davidson diagonalization with overlap
     ethr =  3.18E-09,  avg # of iterations =  2.2

     total cpu time spent up to now is       23.1 secs

     total energy              =     -90.41158677 Ry
     Harris-Foulkes estimate   =     -90.41155451 Ry
     estimated scf accuracy    <       0.00113334 Ry

     iteration # 35     ecut=    40.00 Ry     beta= 0.50
     Davidson diagonalization with overlap
     ethr =  3.18E-09,  avg # of iterations =  3.2

     total cpu time spent up to now is       24.0 secs

     total energy              =     -90.41159314 Ry
     Harris-Foulkes estimate   =     -90.41158991 Ry
     estimated scf accuracy    <       0.00162744 Ry

     iteration # 36     ecut=    40.00 Ry     beta= 0.50
     Davidson diagonalization with overlap
     ethr =  3.18E-09,  avg # of iterations =  1.0

     total cpu time spent up to now is       24.5 secs

     total energy              =     -90.41159927 Ry
     Harris-Foulkes estimate   =     -90.41159317 Ry
     estimated scf accuracy    <       0.00166931 Ry

     iteration # 37     ecut=    40.00 Ry     beta= 0.50
     Davidson diagonalization with overlap
     ethr =  3.18E-09,  avg # of iterations =  1.8

     total cpu time spent up to now is       25.1 secs

     total energy              =     -90.41161041 Ry
     Harris-Foulkes estimate   =     -90.41159937 Ry
     estimated scf accuracy    <       0.00175647 Ry

     iteration # 38     ecut=    40.00 Ry     beta= 0.50
     Davidson diagonalization with overlap
     ethr =  3.18E-09,  avg # of iterations =  1.7

     total cpu time spent up to now is       25.7 secs

     total energy              =     -90.41134723 Ry
     Harris-Foulkes estimate   =     -90.41161064 Ry
     estimated scf accuracy    <       0.00191378 Ry

     iteration # 39     ecut=    40.00 Ry     beta= 0.50
     Davidson diagonalization with overlap
     ethr =  3.18E-09,  avg # of iterations =  4.7

     total cpu time spent up to now is       27.1 secs

     total energy              =     -90.41146248 Ry
     Harris-Foulkes estimate   =     -90.41156709 Ry
     estimated scf accuracy    <       0.00131531 Ry

     iteration # 40     ecut=    40.00 Ry     beta= 0.50
     Davidson diagonalization with overlap
     ethr =  3.18E-09,  avg # of iterations =  3.8

     total cpu time spent up to now is       28.2 secs

     total energy              =     -90.41147990 Ry
     Harris-Foulkes estimate   =     -90.41149019 Ry
     estimated scf accuracy    <       0.00025421 Ry

     iteration # 41     ecut=    40.00 Ry     beta= 0.50
     Davidson diagonalization with overlap
     ethr =  3.18E-09,  avg # of iterations =  3.8

     total cpu time spent up to now is       29.3 secs

     total energy              =     -90.41150665 Ry
     Harris-Foulkes estimate   =     -90.41150906 Ry
     estimated scf accuracy    <       0.00028348 Ry

     iteration # 42     ecut=    40.00 Ry     beta= 0.50
     Davidson diagonalization with overlap
     ethr =  3.18E-09,  avg # of iterations =  1.3

     total cpu time spent up to now is       30.0 secs

     total energy              =     -90.41150841 Ry
     Harris-Foulkes estimate   =     -90.41150671 Ry
     estimated scf accuracy    <       0.00025374 Ry

     iteration # 43     ecut=    40.00 Ry     beta= 0.50
     Davidson diagonalization with overlap
     ethr =  3.18E-09,  avg # of iterations =  1.0

     total cpu time spent up to now is       30.6 secs

     total energy              =     -90.41150773 Ry
     Harris-Foulkes estimate   =     -90.41150844 Ry
     estimated scf accuracy    <       0.00027294 Ry

     iteration # 44     ecut=    40.00 Ry     beta= 0.50
     Davidson diagonalization with overlap
     ethr =  3.18E-09,  avg # of iterations =  1.0

     total cpu time spent up to now is       31.1 secs

     total energy              =     -90.41150040 Ry
     Harris-Foulkes estimate   =     -90.41150774 Ry
     estimated scf accuracy    <       0.00026410 Ry

     iteration # 45     ecut=    40.00 Ry     beta= 0.50
     Davidson diagonalization with overlap
     ethr =  3.18E-09,  avg # of iterations =  3.1

     total cpu time spent up to now is       32.1 secs

     total energy              =     -90.41151336 Ry
     Harris-Foulkes estimate   =     -90.41150229 Ry
     estimated scf accuracy    <       0.00019392 Ry

     iteration # 46     ecut=    40.00 Ry     beta= 0.50
     Davidson diagonalization with overlap
     ethr =  3.18E-09,  avg # of iterations =  3.2

     total cpu time spent up to now is       33.3 secs

     total energy              =     -90.41151793 Ry
     Harris-Foulkes estimate   =     -90.41151741 Ry
     estimated scf accuracy    <       0.00040409 Ry

     iteration # 47     ecut=    40.00 Ry     beta= 0.50
     Davidson diagonalization with overlap
     ethr =  3.18E-09,  avg # of iterations =  1.0

     total cpu time spent up to now is       33.9 secs

     total energy              =     -90.41150354 Ry
     Harris-Foulkes estimate   =     -90.41151794 Ry
     estimated scf accuracy    <       0.00041024 Ry

     iteration # 48     ecut=    40.00 Ry     beta= 0.50
     Davidson diagonalization with overlap
     ethr =  3.18E-09,  avg # of iterations =  3.3

     total cpu time spent up to now is       35.2 secs

     total energy              =     -90.41151292 Ry
     Harris-Foulkes estimate   =     -90.41150731 Ry
     estimated scf accuracy    <       0.00026173 Ry

     iteration # 49     ecut=    40.00 Ry     beta= 0.50
     Davidson diagonalization with overlap
     ethr =  3.18E-09,  avg # of iterations =  3.3

     total cpu time spent up to now is       36.3 secs

     total energy              =     -90.41144180 Ry
     Harris-Foulkes estimate   =     -90.41152746 Ry
     estimated scf accuracy    <       0.00076208 Ry

     iteration # 50     ecut=    40.00 Ry     beta= 0.50
     Davidson diagonalization with overlap
     c_bands:  3 eigenvalues not converged
     ethr =  3.18E-09,  avg # of iterations =  4.9

     total cpu time spent up to now is       38.1 secs

     total energy              =     -90.41150404 Ry
     Harris-Foulkes estimate   =     -90.41154734 Ry
     estimated scf accuracy    <       0.00102118 Ry

     iteration # 51     ecut=    40.00 Ry     beta= 0.50
     Davidson diagonalization with overlap
     ethr =  3.18E-09,  avg # of iterations =  3.1

     total cpu time spent up to now is       39.3 secs

     total energy              =     -90.41149448 Ry
     Harris-Foulkes estimate   =     -90.41151036 Ry
     estimated scf accuracy    <       0.00052782 Ry

     iteration # 52     ecut=    40.00 Ry     beta= 0.50
     Davidson diagonalization with overlap
     ethr =  3.18E-09,  avg # of iterations =  2.5

     total cpu time spent up to now is       40.4 secs

     total energy              =     -90.41148621 Ry
     Harris-Foulkes estimate   =     -90.41149611 Ry
     estimated scf accuracy    <       0.00033333 Ry

     iteration # 53     ecut=    40.00 Ry     beta= 0.50
     Davidson diagonalization with overlap
     ethr =  3.18E-09,  avg # of iterations =  2.3

     total cpu time spent up to now is       41.4 secs

     total energy              =     -90.41146899 Ry
     Harris-Foulkes estimate   =     -90.41148715 Ry
     estimated scf accuracy    <       0.00021136 Ry

     iteration # 54     ecut=    40.00 Ry     beta= 0.50
     Davidson diagonalization with overlap
     ethr =  3.18E-09,  avg # of iterations =  3.3

     total cpu time spent up to now is       42.9 secs

     total energy              =     -90.41150344 Ry
     Harris-Foulkes estimate   =     -90.41150799 Ry
     estimated scf accuracy    <       0.00019414 Ry

     iteration # 55     ecut=    40.00 Ry     beta= 0.50
     Davidson diagonalization with overlap
     ethr =  3.18E-09,  avg # of iterations =  1.6

     total cpu time spent up to now is       43.9 secs

     total energy              =     -90.41150298 Ry
     Harris-Foulkes estimate   =     -90.41150379 Ry
     estimated scf accuracy    <       0.00013943 Ry

     iteration # 56     ecut=    40.00 Ry     beta= 0.50
     Davidson diagonalization with overlap
     ethr =  3.18E-09,  avg # of iterations =  1.0

     total cpu time spent up to now is       44.7 secs

     total energy              =     -90.41151402 Ry
     Harris-Foulkes estimate   =     -90.41150300 Ry
     estimated scf accuracy    <       0.00012942 Ry

     iteration # 57     ecut=    40.00 Ry     beta= 0.50
     Davidson diagonalization with overlap
     ethr =  3.18E-09,  avg # of iterations =  3.4

     total cpu time spent up to now is       46.2 secs

     total energy              =     -90.41154633 Ry
     Harris-Foulkes estimate   =     -90.41154096 Ry
     estimated scf accuracy    <       0.00071573 Ry

     iteration # 58     ecut=    40.00 Ry     beta= 0.50
     Davidson diagonalization with overlap
     ethr =  3.18E-09,  avg # of iterations =  1.5

     total cpu time spent up to now is       47.2 secs

     total energy              =     -90.41154240 Ry
     Harris-Foulkes estimate   =     -90.41154650 Ry
     estimated scf accuracy    <       0.00079563 Ry

     iteration # 59     ecut=    40.00 Ry     beta= 0.50
     Davidson diagonalization with overlap
     ethr =  3.18E-09,  avg # of iterations =  1.3

     total cpu time spent up to now is       48.1 secs

     total energy              =     -90.41153201 Ry
     Harris-Foulkes estimate   =     -90.41154247 Ry
     estimated scf accuracy    <       0.00074601 Ry

     iteration # 60     ecut=    40.00 Ry     beta= 0.50
     Davidson diagonalization with overlap
     ethr =  3.18E-09,  avg # of iterations =  3.4

     total cpu time spent up to now is       49.7 secs

     total energy              =     -90.41149367 Ry
     Harris-Foulkes estimate   =     -90.41155289 Ry
     estimated scf accuracy    <       0.00111670 Ry

     iteration # 61     ecut=    40.00 Ry     beta= 0.50
     Davidson diagonalization with overlap
     ethr =  3.18E-09,  avg # of iterations =  3.2

     total cpu time spent up to now is       51.4 secs

     total energy              =     -90.41147707 Ry
     Harris-Foulkes estimate   =     -90.41150405 Ry
     estimated scf accuracy    <       0.00044108 Ry

     iteration # 62     ecut=    40.00 Ry     beta= 0.50
     Davidson diagonalization with overlap
     ethr =  3.18E-09,  avg # of iterations =  3.5

     total cpu time spent up to now is       53.1 secs

     total energy              =     -90.41150122 Ry
     Harris-Foulkes estimate   =     -90.41150177 Ry
     estimated scf accuracy    <       0.00008214 Ry

     iteration # 63     ecut=    40.00 Ry     beta= 0.50
     Davidson diagonalization with overlap
     ethr =  3.18E-09,  avg # of iterations =  2.0

     total cpu time spent up to now is       54.3 secs

     total energy              =     -90.41149844 Ry
     Harris-Foulkes estimate   =     -90.41150125 Ry
     estimated scf accuracy    <       0.00007657 Ry

     iteration # 64     ecut=    40.00 Ry     beta= 0.50
     Davidson diagonalization with overlap
     ethr =  3.18E-09,  avg # of iterations =  3.2

     total cpu time spent up to now is       55.9 secs

     total energy              =     -90.41149205 Ry
     Harris-Foulkes estimate   =     -90.41150609 Ry
     estimated scf accuracy    <       0.00046763 Ry

     iteration # 65     ecut=    40.00 Ry     beta= 0.50
     Davidson diagonalization with overlap
     ethr =  3.18E-09,  avg # of iterations =  2.5

     total cpu time spent up to now is       57.3 secs

     total energy              =     -90.41149596 Ry
     Harris-Foulkes estimate   =     -90.41149350 Ry
     estimated scf accuracy    <       0.00029577 Ry

     iteration # 66     ecut=    40.00 Ry     beta= 0.50
     Davidson diagonalization with overlap
     ethr =  3.18E-09,  avg # of iterations =  1.5

     total cpu time spent up to now is       58.4 secs

     total energy              =     -90.41148783 Ry
     Harris-Foulkes estimate   =     -90.41149608 Ry
     estimated scf accuracy    <       0.00032933 Ry

     iteration # 67     ecut=    40.00 Ry     beta= 0.50
     Davidson diagonalization with overlap
     ethr =  3.18E-09,  avg # of iterations =  3.2

     total cpu time spent up to now is       60.1 secs

     total energy              =     -90.41149707 Ry
     Harris-Foulkes estimate   =     -90.41149711 Ry
     estimated scf accuracy    <       0.00004446 Ry

     iteration # 68     ecut=    40.00 Ry     beta= 0.50
     Davidson diagonalization with overlap
     ethr =  3.18E-09,  avg # of iterations =  1.0

     total cpu time spent up to now is       61.1 secs

     total energy              =     -90.41149740 Ry
     Harris-Foulkes estimate   =     -90.41149709 Ry
     estimated scf accuracy    <       0.00004223 Ry

     iteration # 69     ecut=    40.00 Ry     beta= 0.50
     Davidson diagonalization with overlap
     ethr =  3.18E-09,  avg # of iterations =  2.5

     total cpu time spent up to now is       62.6 secs

     total energy              =     -90.41149736 Ry
     Harris-Foulkes estimate   =     -90.41149833 Ry
     estimated scf accuracy    <       0.00007172 Ry

     iteration # 70     ecut=    40.00 Ry     beta= 0.50
     Davidson diagonalization with overlap
     ethr =  3.18E-09,  avg # of iterations =  1.2

     total cpu time spent up to now is       63.7 secs

     total energy              =     -90.41150343 Ry
     Harris-Foulkes estimate   =     -90.41149743 Ry
     estimated scf accuracy    <       0.00005969 Ry

     iteration # 71     ecut=    40.00 Ry     beta= 0.50
     Davidson diagonalization with overlap
     ethr =  3.18E-09,  avg # of iterations =  2.5

     total cpu time spent up to now is       65.4 secs

     total energy              =     -90.41150703 Ry
     Harris-Foulkes estimate   =     -90.41150887 Ry
     estimated scf accuracy    <       0.00023537 Ry

     iteration # 72     ecut=    40.00 Ry     beta= 0.50
     Davidson diagonalization with overlap
     c_bands:  4 eigenvalues not converged
     ethr =  3.18E-09,  avg # of iterations =  2.8

     total cpu time spent up to now is       67.1 secs

     total energy              =     -90.41152592 Ry
     Harris-Foulkes estimate   =     -90.41154663 Ry
     estimated scf accuracy    <       0.00102806 Ry

     iteration # 73     ecut=    40.00 Ry     beta= 0.50
     Davidson diagonalization with overlap
     ethr =  3.18E-09,  avg # of iterations =  3.4

     total cpu time spent up to now is       69.1 secs

     total energy              =     -90.41152651 Ry
     Harris-Foulkes estimate   =     -90.41152761 Ry
     estimated scf accuracy    <       0.00076789 Ry

     iteration # 74     ecut=    40.00 Ry     beta= 0.50
     Davidson diagonalization with overlap
     ethr =  3.18E-09,  avg # of iterations =  1.0

     total cpu time spent up to now is       70.2 secs

     total energy              =     -90.41152560 Ry
     Harris-Foulkes estimate   =     -90.41152652 Ry
     estimated scf accuracy    <       0.00075412 Ry

     iteration # 75     ecut=    40.00 Ry     beta= 0.50
     Davidson diagonalization with overlap
     ethr =  3.18E-09,  avg # of iterations =  1.0

     total cpu time spent up to now is       71.3 secs

     total energy              =     -90.41142756 Ry
     Harris-Foulkes estimate   =     -90.41152561 Ry
     estimated scf accuracy    <       0.00074235 Ry

     iteration # 76     ecut=    40.00 Ry     beta= 0.50
     Davidson diagonalization with overlap
     ethr =  3.18E-09,  avg # of iterations =  4.7

     total cpu time spent up to now is       74.1 secs

     total energy              =     -90.41149784 Ry
     Harris-Foulkes estimate   =     -90.41156341 Ry
     estimated scf accuracy    <       0.00126552 Ry

     iteration # 77     ecut=    40.00 Ry     beta= 0.50
     Davidson diagonalization with overlap
     ethr =  3.18E-09,  avg # of iterations =  3.3

     total cpu time spent up to now is       76.4 secs

     total energy              =     -90.41149149 Ry
     Harris-Foulkes estimate   =     -90.41151007 Ry
     estimated scf accuracy    <       0.00052768 Ry

     iteration # 78     ecut=    40.00 Ry     beta= 0.50
     Davidson diagonalization with overlap
     ethr =  3.18E-09,  avg # of iterations =  2.5

     total cpu time spent up to now is       78.2 secs

     total energy              =     -90.41148712 Ry
     Harris-Foulkes estimate   =     -90.41149369 Ry
     estimated scf accuracy    <       0.00030167 Ry

     iteration # 79     ecut=    40.00 Ry     beta= 0.50
     Davidson diagonalization with overlap
     ethr =  3.18E-09,  avg # of iterations =  1.5

     total cpu time spent up to now is       79.6 secs

     total energy              =     -90.41148667 Ry
     Harris-Foulkes estimate   =     -90.41148758 Ry
     estimated scf accuracy    <       0.00021831 Ry

     iteration # 80     ecut=    40.00 Ry     beta= 0.50
     Davidson diagonalization with overlap
     ethr =  3.18E-09,  avg # of iterations =  1.0

     total cpu time spent up to now is       80.8 secs

     total energy              =     -90.41153672 Ry
     Harris-Foulkes estimate   =     -90.41148668 Ry
     estimated scf accuracy    <       0.00020709 Ry

     iteration # 81     ecut=    40.00 Ry     beta= 0.50
     Davidson diagonalization with overlap
     ethr =  3.18E-09,  avg # of iterations =  3.7

     total cpu time spent up to now is       83.3 secs

     total energy              =     -90.41164718 Ry
     Harris-Foulkes estimate   =     -90.41157074 Ry
     estimated scf accuracy    <       0.00136213 Ry

     iteration # 82     ecut=    40.00 Ry     beta= 0.50
     Davidson diagonalization with overlap
     ethr =  3.18E-09,  avg # of iterations =  3.2

     total cpu time spent up to now is       85.7 secs

     total energy              =     -90.41155858 Ry
     Harris-Foulkes estimate   =     -90.41166088 Ry
     estimated scf accuracy    <       0.00260944 Ry

     iteration # 83     ecut=    40.00 Ry     beta= 0.50
     Davidson diagonalization with overlap
     ethr =  3.18E-09,  avg # of iterations =  2.7

     total cpu time spent up to now is       87.9 secs

     total energy              =     -90.41155006 Ry
     Harris-Foulkes estimate   =     -90.41157170 Ry
     estimated scf accuracy    <       0.00137671 Ry

     iteration # 84     ecut=    40.00 Ry     beta= 0.50
     Davidson diagonalization with overlap
     ethr =  3.18E-09,  avg # of iterations =  2.7

     total cpu time spent up to now is       89.9 secs

     total energy              =     -90.41139587 Ry
     Harris-Foulkes estimate   =     -90.41155117 Ry
     estimated scf accuracy    <       0.00109361 Ry

     iteration # 85     ecut=    40.00 Ry     beta= 0.50
     Davidson diagonalization with overlap
     ethr =  3.18E-09,  avg # of iterations =  4.4

     total cpu time spent up to now is       93.0 secs

     total energy              =     -90.41148385 Ry
     Harris-Foulkes estimate   =     -90.41157352 Ry
     estimated scf accuracy    <       0.00140155 Ry

     iteration # 86     ecut=    40.00 Ry     beta= 0.50
     Davidson diagonalization with overlap
     ethr =  3.18E-09,  avg # of iterations =  2.9

     total cpu time spent up to now is       95.4 secs

     total energy              =     -90.41149077 Ry
     Harris-Foulkes estimate   =     -90.41150269 Ry
     estimated scf accuracy    <       0.00042704 Ry

     iteration # 87     ecut=    40.00 Ry     beta= 0.50
     Davidson diagonalization with overlap
     ethr =  3.18E-09,  avg # of iterations =  2.2

     total cpu time spent up to now is       97.3 secs

     total energy              =     -90.41149025 Ry
     Harris-Foulkes estimate   =     -90.41149184 Ry
     estimated scf accuracy    <       0.00027829 Ry

     iteration # 88     ecut=    40.00 Ry     beta= 0.50
     Davidson diagonalization with overlap
     ethr =  3.18E-09,  avg # of iterations =  1.0

     total cpu time spent up to now is       98.7 secs

     total energy              =     -90.41148848 Ry
     Harris-Foulkes estimate   =     -90.41149028 Ry
     estimated scf accuracy    <       0.00025814 Ry

     iteration # 89     ecut=    40.00 Ry     beta= 0.50
     Davidson diagonalization with overlap
     ethr =  3.18E-09,  avg # of iterations =  1.0

     total cpu time spent up to now is      100.0 secs

     total energy              =     -90.41148326 Ry
     Harris-Foulkes estimate   =     -90.41148852 Ry
     estimated scf accuracy    <       0.00023597 Ry

     iteration # 90     ecut=    40.00 Ry     beta= 0.50
     Davidson diagonalization with overlap
     ethr =  3.18E-09,  avg # of iterations =  1.8

     total cpu time spent up to now is      101.8 secs

     total energy              =     -90.41148607 Ry
     Harris-Foulkes estimate   =     -90.41148368 Ry
     estimated scf accuracy    <       0.00016662 Ry

     iteration # 91     ecut=    40.00 Ry     beta= 0.50
     Davidson diagonalization with overlap
     ethr =  3.18E-09,  avg # of iterations =  1.3

     total cpu time spent up to now is      103.3 secs

     total energy              =     -90.41147735 Ry
     Harris-Foulkes estimate   =     -90.41148618 Ry
     estimated scf accuracy    <       0.00020024 Ry

     iteration # 92     ecut=    40.00 Ry     beta= 0.50
     Davidson diagonalization with overlap
     ethr =  3.18E-09,  avg # of iterations =  2.4

     total cpu time spent up to now is      105.5 secs

     total energy              =     -90.41148320 Ry
     Harris-Foulkes estimate   =     -90.41147860 Ry
     estimated scf accuracy    <       0.00009709 Ry

     iteration # 93     ecut=    40.00 Ry     beta= 0.50
     Davidson diagonalization with overlap
     ethr =  3.18E-09,  avg # of iterations =  1.9

     total cpu time spent up to now is      107.4 secs

     total energy              =     -90.41146062 Ry
     Harris-Foulkes estimate   =     -90.41148386 Ry
     estimated scf accuracy    <       0.00016879 Ry

     iteration # 94     ecut=    40.00 Ry     beta= 0.50
     Davidson diagonalization with overlap
     ethr =  3.18E-09,  avg # of iterations =  3.3

     total cpu time spent up to now is      110.2 secs

     total energy              =     -90.41152141 Ry
     Harris-Foulkes estimate   =     -90.41152140 Ry
     estimated scf accuracy    <       0.00038295 Ry

     iteration # 95     ecut=    40.00 Ry     beta= 0.50
     Davidson diagonalization with overlap
     ethr =  3.18E-09,  avg # of iterations =  1.0

     total cpu time spent up to now is      111.7 secs

     total energy              =     -90.41152161 Ry
     Harris-Foulkes estimate   =     -90.41152142 Ry
     estimated scf accuracy    <       0.00038472 Ry

     iteration # 96     ecut=    40.00 Ry     beta= 0.50
     Davidson diagonalization with overlap
     ethr =  3.18E-09,  avg # of iterations =  2.2

     total cpu time spent up to now is      113.8 secs

     total energy              =     -90.41152195 Ry
     Harris-Foulkes estimate   =     -90.41157040 Ry
     estimated scf accuracy    <       0.00135791 Ry

     iteration # 97     ecut=    40.00 Ry     beta= 0.50
     Davidson diagonalization with overlap
     ethr =  3.18E-09,  avg # of iterations =  2.5

     total cpu time spent up to now is      116.2 secs

     total energy              =     -90.41151750 Ry
     Harris-Foulkes estimate   =     -90.41152752 Ry
     estimated scf accuracy    <       0.00076829 Ry

     iteration # 98     ecut=    40.00 Ry     beta= 0.50
     Davidson diagonalization with overlap
     ethr =  3.18E-09,  avg # of iterations =  1.5

     total cpu time spent up to now is      118.0 secs

     total energy              =     -90.41151708 Ry
     Harris-Foulkes estimate   =     -90.41151792 Ry
     estimated scf accuracy    <       0.00063664 Ry

     iteration # 99     ecut=    40.00 Ry     beta= 0.50
     Davidson diagonalization with overlap
     ethr =  3.18E-09,  avg # of iterations =  1.0

     total cpu time spent up to now is      119.5 secs

     total energy              =     -90.41151888 Ry
     Harris-Foulkes estimate   =     -90.41151709 Ry
     estimated scf accuracy    <       0.00062626 Ry

     iteration #100     ecut=    40.00 Ry     beta= 0.50
     Davidson diagonalization with overlap
     ethr =  3.18E-09,  avg # of iterations =  1.0

     total cpu time spent up to now is      121.0 secs

     total energy              =     -90.41153360 Ry
     Harris-Foulkes estimate   =     -90.41151889 Ry
     estimated scf accuracy    <       0.00064768 Ry

     iteration #101     ecut=    40.00 Ry     beta= 0.50
     Davidson diagonalization with overlap
     ethr =  3.18E-09,  avg # of iterations =  2.2

     total cpu time spent up to now is      123.2 secs

     total energy              =     -90.41151781 Ry
     Harris-Foulkes estimate   =     -90.41153466 Ry
     estimated scf accuracy    <       0.00086598 Ry

     iteration #102     ecut=    40.00 Ry     beta= 0.50
     Davidson diagonalization with overlap
     ethr =  3.18E-09,  avg # of iterations =  3.1

     total cpu time spent up to now is      125.8 secs

     total energy              =     -90.41142568 Ry
     Harris-Foulkes estimate   =     -90.41151891 Ry
     estimated scf accuracy    <       0.00064889 Ry

     iteration #103     ecut=    40.00 Ry     beta= 0.50
     Davidson diagonalization with overlap
     ethr =  3.18E-09,  avg # of iterations =  4.3

     total cpu time spent up to now is      129.4 secs

     total energy              =     -90.41152370 Ry
     Harris-Foulkes estimate   =     -90.41157438 Ry
     estimated scf accuracy    <       0.00141348 Ry

     iteration #104     ecut=    40.00 Ry     beta= 0.50
     Davidson diagonalization with overlap
     ethr =  3.18E-09,  avg # of iterations =  2.5

     total cpu time spent up to now is      132.6 secs

     total energy              =     -90.41149496 Ry
     Harris-Foulkes estimate   =     -90.41152959 Ry
     estimated scf accuracy    <       0.00079669 Ry

     iteration #105     ecut=    40.00 Ry     beta= 0.50
     Davidson diagonalization with overlap
     ethr =  3.18E-09,  avg # of iterations =  2.5

     total cpu time spent up to now is      135.1 secs

     total energy              =     -90.41149400 Ry
     Harris-Foulkes estimate   =     -90.41149984 Ry
     estimated scf accuracy    <       0.00038783 Ry

     iteration #106     ecut=    40.00 Ry     beta= 0.50
     Davidson diagonalization with overlap
     ethr =  3.18E-09,  avg # of iterations =  1.5

     total cpu time spent up to now is      137.0 secs

     total energy              =     -90.41149005 Ry
     Harris-Foulkes estimate   =     -90.41149428 Ry
     estimated scf accuracy    <       0.00031201 Ry

     iteration #107     ecut=    40.00 Ry     beta= 0.50
     Davidson diagonalization with overlap
     ethr =  3.18E-09,  avg # of iterations =  1.5

     total cpu time spent up to now is      138.9 secs

     total energy              =     -90.41148843 Ry
     Harris-Foulkes estimate   =     -90.41149023 Ry
     estimated scf accuracy    <       0.00025665 Ry

     iteration #108     ecut=    40.00 Ry     beta= 0.50
     Davidson diagonalization with overlap
     ethr =  3.18E-09,  avg # of iterations =  1.0

     total cpu time spent up to now is      140.5 secs

     total energy              =     -90.41147715 Ry
     Harris-Foulkes estimate   =     -90.41148847 Ry
     estimated scf accuracy    <       0.00023377 Ry

     iteration #109     ecut=    40.00 Ry     beta= 0.50
     Davidson diagonalization with overlap
     ethr =  3.18E-09,  avg # of iterations =  2.3

     total cpu time spent up to now is      143.0 secs

     total energy              =     -90.41148012 Ry
     Harris-Foulkes estimate   =     -90.41147897 Ry
     estimated scf accuracy    <       0.00010209 Ry

     iteration #110     ecut=    40.00 Ry     beta= 0.50
     Davidson diagonalization with overlap
     ethr =  3.18E-09,  avg # of iterations =  1.0

     total cpu time spent up to now is      144.6 secs

     total energy              =     -90.41146519 Ry
     Harris-Foulkes estimate   =     -90.41148016 Ry
     estimated scf accuracy    <       0.00011738 Ry

     iteration #111     ecut=    40.00 Ry     beta= 0.50
     Davidson diagonalization with overlap
     ethr =  3.18E-09,  avg # of iterations =  3.8

     total cpu time spent up to now is      148.1 secs

     total energy              =     -90.41152259 Ry
     Harris-Foulkes estimate   =     -90.41151916 Ry
     estimated scf accuracy    <       0.00035240 Ry

     iteration #112     ecut=    40.00 Ry     beta= 0.50
     Davidson diagonalization with overlap
     ethr =  3.18E-09,  avg # of iterations =  1.3

     total cpu time spent up to now is      150.0 secs

     total energy              =     -90.41152286 Ry
     Harris-Foulkes estimate   =     -90.41152271 Ry
     estimated scf accuracy    <       0.00040025 Ry

     iteration #113     ecut=    40.00 Ry     beta= 0.50
     Davidson diagonalization with overlap
     ethr =  3.18E-09,  avg # of iterations =  1.0

     total cpu time spent up to now is      151.7 secs

     total energy              =     -90.41152244 Ry
     Harris-Foulkes estimate   =     -90.41152286 Ry
     estimated scf accuracy    <       0.00040245 Ry

     iteration #114     ecut=    40.00 Ry     beta= 0.50
     Davidson diagonalization with overlap
     ethr =  3.18E-09,  avg # of iterations =  1.0

     total cpu time spent up to now is      153.4 secs

     total energy              =     -90.41152206 Ry
     Harris-Foulkes estimate   =     -90.41152245 Ry
     estimated scf accuracy    <       0.00039693 Ry

     iteration #115     ecut=    40.00 Ry     beta= 0.50
     Davidson diagonalization with overlap
     ethr =  3.18E-09,  avg # of iterations =  1.0

     total cpu time spent up to now is      155.1 secs

     total energy              =     -90.41152254 Ry
     Harris-Foulkes estimate   =     -90.41152206 Ry
     estimated scf accuracy    <       0.00039349 Ry

     iteration #116     ecut=    40.00 Ry     beta= 0.50
     Davidson diagonalization with overlap
     ethr =  3.18E-09,  avg # of iterations =  1.0

     total cpu time spent up to now is      156.9 secs

     total energy              =     -90.41152638 Ry
     Harris-Foulkes estimate   =     -90.41152254 Ry
     estimated scf accuracy    <       0.00039725 Ry

     iteration #117     ecut=    40.00 Ry     beta= 0.50
     Davidson diagonalization with overlap
     ethr =  3.18E-09,  avg # of iterations =  1.4

     total cpu time spent up to now is      158.8 secs

     total energy              =     -90.41152862 Ry
     Harris-Foulkes estimate   =     -90.41152646 Ry
     estimated scf accuracy    <       0.00044022 Ry

     iteration #118     ecut=    40.00 Ry     beta= 0.50
     Davidson diagonalization with overlap
     ethr =  3.18E-09,  avg # of iterations =  1.0

     total cpu time spent up to now is      160.6 secs

     total energy              =     -90.41152976 Ry
     Harris-Foulkes estimate   =     -90.41152865 Ry
     estimated scf accuracy    <       0.00046392 Ry

     iteration #119     ecut=    40.00 Ry     beta= 0.50
     Davidson diagonalization with overlap
     ethr =  3.18E-09,  avg # of iterations =  1.5

     total cpu time spent up to now is      162.6 secs

     total energy              =     -90.41144804 Ry
     Harris-Foulkes estimate   =     -90.41152979 Ry
     estimated scf accuracy    <       0.00047387 Ry

     iteration #120     ecut=    40.00 Ry     beta= 0.50
     Davidson diagonalization with overlap
     ethr =  3.18E-09,  avg # of iterations =  5.3

     total cpu time spent up to now is      167.7 secs

     total energy              =     -90.41150567 Ry
     Harris-Foulkes estimate   =     -90.41152519 Ry
     estimated scf accuracy    <       0.00018317 Ry

     iteration #121     ecut=    40.00 Ry     beta= 0.50
     Davidson diagonalization with overlap
     ethr =  3.18E-09,  avg # of iterations =  3.9

     total cpu time spent up to now is      171.6 secs

     total energy              =     -90.41149858 Ry
     Harris-Foulkes estimate   =     -90.41150730 Ry
     estimated scf accuracy    <       0.00009715 Ry

     iteration #122     ecut=    40.00 Ry     beta= 0.50
     Davidson diagonalization with overlap
     ethr =  3.18E-09,  avg # of iterations =  3.8

     total cpu time spent up to now is      175.3 secs

     total energy              =     -90.41149656 Ry
     Harris-Foulkes estimate   =     -90.41149935 Ry
     estimated scf accuracy    <       0.00005682 Ry

     iteration #123     ecut=    40.00 Ry     beta= 0.50
     Davidson diagonalization with overlap
     ethr =  3.18E-09,  avg # of iterations =  1.0

     total cpu time spent up to now is      177.2 secs

     total energy              =     -90.41149654 Ry
     Harris-Foulkes estimate   =     -90.41149665 Ry
     estimated scf accuracy    <       0.00004559 Ry

     iteration #124     ecut=    40.00 Ry     beta= 0.50
     Davidson diagonalization with overlap
     ethr =  3.18E-09,  avg # of iterations =  1.2

     total cpu time spent up to now is      179.1 secs

     total energy              =     -90.41148935 Ry
     Harris-Foulkes estimate   =     -90.41149658 Ry
     estimated scf accuracy    <       0.00004612 Ry

     iteration #125     ecut=    40.00 Ry     beta= 0.50
     Davidson diagonalization with overlap
     c_bands:  4 eigenvalues not converged
     ethr =  3.18E-09,  avg # of iterations =  4.7

     total cpu time spent up to now is      183.5 secs

     total energy              =     -90.41150216 Ry
     Harris-Foulkes estimate   =     -90.41150085 Ry
     estimated scf accuracy    <       0.00003983 Ry

     iteration #126     ecut=    40.00 Ry     beta= 0.50
     Davidson diagonalization with overlap
     ethr =  3.18E-09,  avg # of iterations =  2.2

     total cpu time spent up to now is      186.2 secs

     total energy              =     -90.41150072 Ry
     Harris-Foulkes estimate   =     -90.41150769 Ry
     estimated scf accuracy    <       0.00009066 Ry

     iteration #127     ecut=    40.00 Ry     beta= 0.50
     Davidson diagonalization with overlap
     ethr =  3.18E-09,  avg # of iterations =  3.2

     total cpu time spent up to now is      189.6 secs

     total energy              =     -90.41149854 Ry
     Harris-Foulkes estimate   =     -90.41150126 Ry
     estimated scf accuracy    <       0.00006314 Ry

     iteration #128     ecut=    40.00 Ry     beta= 0.50
     Davidson diagonalization with overlap
     ethr =  3.18E-09,  avg # of iterations =  1.0

     total cpu time spent up to now is      191.5 secs

     total energy              =     -90.41149022 Ry
     Harris-Foulkes estimate   =     -90.41149863 Ry
     estimated scf accuracy    <       0.00005171 Ry

     iteration #129     ecut=    40.00 Ry     beta= 0.50
     Davidson diagonalization with overlap
     ethr =  3.18E-09,  avg # of iterations =  4.2

     total cpu time spent up to now is      195.8 secs

     total energy              =     -90.41149872 Ry
     Harris-Foulkes estimate   =     -90.41150132 Ry
     estimated scf accuracy    <       0.00007779 Ry

     iteration #130     ecut=    40.00 Ry     beta= 0.50
     Davidson diagonalization with overlap
     ethr =  3.18E-09,  avg # of iterations =  1.0

     total cpu time spent up to now is      197.7 secs

     total energy              =     -90.41149903 Ry
     Harris-Foulkes estimate   =     -90.41149880 Ry
     estimated scf accuracy    <       0.00006694 Ry

     iteration #131     ecut=    40.00 Ry     beta= 0.50
     Davidson diagonalization with overlap
     ethr =  3.18E-09,  avg # of iterations =  2.1

     total cpu time spent up to now is      200.4 secs

     total energy              =     -90.41149783 Ry
     Harris-Foulkes estimate   =     -90.41149926 Ry
     estimated scf accuracy    <       0.00005998 Ry

     iteration #132     ecut=    40.00 Ry     beta= 0.50
     Davidson diagonalization with overlap
     ethr =  3.18E-09,  avg # of iterations =  2.8

     total cpu time spent up to now is      203.6 secs

     total energy              =     -90.41149842 Ry
     Harris-Foulkes estimate   =     -90.41149933 Ry
     estimated scf accuracy    <       0.00005703 Ry

     iteration #133     ecut=    40.00 Ry     beta= 0.50
     Davidson diagonalization with overlap
     ethr =  3.18E-09,  avg # of iterations =  1.0

     total cpu time spent up to now is      205.6 secs

     total energy              =     -90.41149332 Ry
     Harris-Foulkes estimate   =     -90.41149844 Ry
     estimated scf accuracy    <       0.00005345 Ry

     iteration #134     ecut=    40.00 Ry     beta= 0.50
     Davidson diagonalization with overlap
     ethr =  3.18E-09,  avg # of iterations =  4.0

     total cpu time spent up to now is      209.8 secs

     total energy              =     -90.41149963 Ry
     Harris-Foulkes estimate   =     -90.41150093 Ry
     estimated scf accuracy    <       0.00007101 Ry

     iteration #135     ecut=    40.00 Ry     beta= 0.50
     Davidson diagonalization with overlap
     ethr =  3.18E-09,  avg # of iterations =  1.1

     total cpu time spent up to now is      211.8 secs

     total energy              =     -90.41149415 Ry
     Harris-Foulkes estimate   =     -90.41149970 Ry
     estimated scf accuracy    <       0.00006637 Ry

     iteration #136     ecut=    40.00 Ry     beta= 0.50
     Davidson diagonalization with overlap
     ethr =  3.18E-09,  avg # of iterations =  3.6

     total cpu time spent up to now is      215.8 secs

     total energy              =     -90.41149907 Ry
     Harris-Foulkes estimate   =     -90.41150003 Ry
     estimated scf accuracy    <       0.00024428 Ry

     iteration #137     ecut=    40.00 Ry     beta= 0.50
     Davidson diagonalization with overlap
     ethr =  3.18E-09,  avg # of iterations =  1.0

     total cpu time spent up to now is      217.8 secs

     total energy              =     -90.41149555 Ry
     Harris-Foulkes estimate   =     -90.41149910 Ry
     estimated scf accuracy    <       0.00023514 Ry

     iteration #138     ecut=    40.00 Ry     beta= 0.50
     Davidson diagonalization with overlap
     ethr =  3.18E-09,  avg # of iterations =  3.8

     total cpu time spent up to now is      222.0 secs

     total energy              =     -90.41149594 Ry
     Harris-Foulkes estimate   =     -90.41149938 Ry
     estimated scf accuracy    <       0.00011542 Ry

     iteration #139     ecut=    40.00 Ry     beta= 0.50
     Davidson diagonalization with overlap
     ethr =  3.18E-09,  avg # of iterations =  4.4

     total cpu time spent up to now is      226.9 secs

     total energy              =     -90.41150091 Ry
     Harris-Foulkes estimate   =     -90.41150073 Ry
     estimated scf accuracy    <       0.00007239 Ry

     iteration #140     ecut=    40.00 Ry     beta= 0.50
     Davidson diagonalization with overlap
     ethr =  3.18E-09,  avg # of iterations =  3.3

     total cpu time spent up to now is      231.0 secs

     total energy              =     -90.41148014 Ry
     Harris-Foulkes estimate   =     -90.41150433 Ry
     estimated scf accuracy    <       0.00017178 Ry

     iteration #141     ecut=    40.00 Ry     beta= 0.50
     Davidson diagonalization with overlap
     c_bands:  4 eigenvalues not converged
     ethr =  3.18E-09,  avg # of iterations =  5.3

     total cpu time spent up to now is      236.7 secs

     total energy              =     -90.41150776 Ry
     Harris-Foulkes estimate   =     -90.41151651 Ry
     estimated scf accuracy    <       0.00030379 Ry

     iteration #142     ecut=    40.00 Ry     beta= 0.50
     Davidson diagonalization with overlap
     ethr =  3.18E-09,  avg # of iterations =  3.0

     total cpu time spent up to now is      240.4 secs

     total energy              =     -90.41149697 Ry
     Harris-Foulkes estimate   =     -90.41150988 Ry
     estimated scf accuracy    <       0.00021910 Ry

     iteration #143     ecut=    40.00 Ry     beta= 0.50
     Davidson diagonalization with overlap
     ethr =  3.18E-09,  avg # of iterations =  3.8

     total cpu time spent up to now is      244.8 secs

     total energy              =     -90.41149579 Ry
     Harris-Foulkes estimate   =     -90.41149921 Ry
     estimated scf accuracy    <       0.00014239 Ry

     iteration #144     ecut=    40.00 Ry     beta= 0.50
     Davidson diagonalization with overlap
     ethr =  3.18E-09,  avg # of iterations =  2.6

     total cpu time spent up to now is      248.1 secs

     total energy              =     -90.41149693 Ry
     Harris-Foulkes estimate   =     -90.41149773 Ry
     estimated scf accuracy    <       0.00019254 Ry

     iteration #145     ecut=    40.00 Ry     beta= 0.50
     Davidson diagonalization with overlap
     ethr =  3.18E-09,  avg # of iterations =  1.0

     total cpu time spent up to now is      250.3 secs

     total energy              =     -90.41149702 Ry
     Harris-Foulkes estimate   =     -90.41149697 Ry
     estimated scf accuracy    <       0.00018613 Ry

     iteration #146     ecut=    40.00 Ry     beta= 0.50
     Davidson diagonalization with overlap
     ethr =  3.18E-09,  avg # of iterations =  2.1

     total cpu time spent up to now is      253.9 secs

     total energy              =     -90.41149634 Ry
     Harris-Foulkes estimate   =     -90.41149814 Ry
     estimated scf accuracy    <       0.00005002 Ry

     iteration #147     ecut=    40.00 Ry     beta= 0.50
     Davidson diagonalization with overlap
     c_bands:  1 eigenvalues not converged
     ethr =  3.18E-09,  avg # of iterations =  4.0

     total cpu time spent up to now is      258.7 secs

     total energy              =     -90.41149499 Ry
     Harris-Foulkes estimate   =     -90.41150224 Ry
     estimated scf accuracy    <       0.00010533 Ry

     iteration #148     ecut=    40.00 Ry     beta= 0.50
     Davidson diagonalization with overlap
     c_bands:  4 eigenvalues not converged
     ethr =  3.18E-09,  avg # of iterations =  4.1

     total cpu time spent up to now is      263.6 secs

     total energy              =     -90.41149663 Ry
     Harris-Foulkes estimate   =     -90.41149980 Ry
     estimated scf accuracy    <       0.00006964 Ry

     iteration #149     ecut=    40.00 Ry     beta= 0.50
     Davidson diagonalization with overlap
     ethr =  3.18E-09,  avg # of iterations =  4.2

     total cpu time spent up to now is      268.5 secs

     total energy              =     -90.41149073 Ry
     Harris-Foulkes estimate   =     -90.41150174 Ry
     estimated scf accuracy    <       0.00009485 Ry

     iteration #150     ecut=    40.00 Ry     beta= 0.50
     Davidson diagonalization with overlap
     c_bands:  4 eigenvalues not converged
     ethr =  3.18E-09,  avg # of iterations =  4.8

     total cpu time spent up to now is      274.0 secs

     total energy              =     -90.41149195 Ry
     Harris-Foulkes estimate   =     -90.41151040 Ry
     estimated scf accuracy    <       0.00034990 Ry

     iteration #151     ecut=    40.00 Ry     beta= 0.50
     Davidson diagonalization with overlap
     c_bands:  4 eigenvalues not converged
     ethr =  3.18E-09,  avg # of iterations =  4.0

     total cpu time spent up to now is      279.0 secs

     total energy              =     -90.41149689 Ry
     Harris-Foulkes estimate   =     -90.41149781 Ry
     estimated scf accuracy    <       0.00018180 Ry

     iteration #152     ecut=    40.00 Ry     beta= 0.50
     Davidson diagonalization with overlap
     ethr =  3.18E-09,  avg # of iterations =  2.1

     total cpu time spent up to now is      282.1 secs

     total energy              =     -90.41149784 Ry
     Harris-Foulkes estimate   =     -90.41149790 Ry
     estimated scf accuracy    <       0.00014195 Ry

     iteration #153     ecut=    40.00 Ry     beta= 0.50
     Davidson diagonalization with overlap
     c_bands:  2 eigenvalues not converged
     ethr =  3.18E-09,  avg # of iterations =  4.1

     total cpu time spent up to now is      287.2 secs

     total energy              =     -90.41149611 Ry
     Harris-Foulkes estimate   =     -90.41150188 Ry
     estimated scf accuracy    <       0.00008036 Ry

     iteration #154     ecut=    40.00 Ry     beta= 0.50
     Davidson diagonalization with overlap
     ethr =  3.18E-09,  avg # of iterations =  3.2

     total cpu time spent up to now is      291.5 secs

     total energy              =     -90.41149645 Ry
     Harris-Foulkes estimate   =     -90.41149722 Ry
     estimated scf accuracy    <       0.00005033 Ry

     iteration #155     ecut=    40.00 Ry     beta= 0.50
     Davidson diagonalization with overlap
     c_bands:  4 eigenvalues not converged
     ethr =  3.18E-09,  avg # of iterations =  3.8

     total cpu time spent up to now is      296.1 secs

     total energy              =     -90.41149554 Ry
     Harris-Foulkes estimate   =     -90.41149971 Ry
     estimated scf accuracy    <       0.00006405 Ry

     iteration #156     ecut=    40.00 Ry     beta= 0.50
     Davidson diagonalization with overlap
     c_bands:  4 eigenvalues not converged
     ethr =  3.18E-09,  avg # of iterations =  4.2

     total cpu time spent up to now is      301.4 secs

     total energy              =     -90.41149578 Ry
     Harris-Foulkes estimate   =     -90.41150162 Ry
     estimated scf accuracy    <       0.00008170 Ry

     iteration #157     ecut=    40.00 Ry     beta= 0.50
     Davidson diagonalization with overlap
     c_bands:  4 eigenvalues not converged
     ethr =  3.18E-09,  avg # of iterations =  4.8

     total cpu time spent up to now is      307.1 secs

     total energy              =     -90.41149464 Ry
     Harris-Foulkes estimate   =     -90.41150157 Ry
     estimated scf accuracy    <       0.00008895 Ry

     iteration #158     ecut=    40.00 Ry     beta= 0.50
     Davidson diagonalization with overlap
     c_bands:  4 eigenvalues not converged
     ethr =  3.18E-09,  avg # of iterations =  4.2

     total cpu time spent up to now is      312.5 secs

     total energy              =     -90.41149589 Ry
     Harris-Foulkes estimate   =     -90.41149771 Ry
     estimated scf accuracy    <       0.00004233 Ry

     iteration #159     ecut=    40.00 Ry     beta= 0.50
     Davidson diagonalization with overlap
     ethr =  3.18E-09,  avg # of iterations =  4.2

     total cpu time spent up to now is      317.8 secs

     total energy              =     -90.41149603 Ry
     Harris-Foulkes estimate   =     -90.41150326 Ry
     estimated scf accuracy    <       0.00012579 Ry

     iteration #160     ecut=    40.00 Ry     beta= 0.50
     Davidson diagonalization with overlap
     ethr =  3.18E-09,  avg # of iterations =  3.2

     total cpu time spent up to now is      322.4 secs

     total energy              =     -90.41149702 Ry
     Harris-Foulkes estimate   =     -90.41149745 Ry
     estimated scf accuracy    <       0.00007137 Ry

     iteration #161     ecut=    40.00 Ry     beta= 0.50
     Davidson diagonalization with overlap
     ethr =  3.18E-09,  avg # of iterations =  1.9

     total cpu time spent up to now is      325.6 secs

     total energy              =     -90.41149752 Ry
     Harris-Foulkes estimate   =     -90.41149776 Ry
     estimated scf accuracy    <       0.00002100 Ry

     iteration #162     ecut=    40.00 Ry     beta= 0.50
     Davidson diagonalization with overlap
     ethr =  3.18E-09,  avg # of iterations =  1.6

     total cpu time spent up to now is      328.5 secs

     total energy              =     -90.41149738 Ry
     Harris-Foulkes estimate   =     -90.41149759 Ry
     estimated scf accuracy    <       0.00001991 Ry

     iteration #163     ecut=    40.00 Ry     beta= 0.50
     Davidson diagonalization with overlap
     ethr =  3.18E-09,  avg # of iterations =  1.0

     total cpu time spent up to now is      331.1 secs

     total energy              =     -90.41149354 Ry
     Harris-Foulkes estimate   =     -90.41149741 Ry
     estimated scf accuracy    <       0.00001890 Ry

     iteration #164     ecut=    40.00 Ry     beta= 0.50
     Davidson diagonalization with overlap
     c_bands:  4 eigenvalues not converged
     ethr =  3.18E-09,  avg # of iterations =  4.8

     total cpu time spent up to now is      337.1 secs

     total energy              =     -90.41149576 Ry
     Harris-Foulkes estimate   =     -90.41150592 Ry
     estimated scf accuracy    <       0.00010241 Ry

     iteration #165     ecut=    40.00 Ry     beta= 0.50
     Davidson diagonalization with overlap
     ethr =  3.18E-09,  avg # of iterations =  3.4

     total cpu time spent up to now is      341.9 secs

     total energy              =     -90.41149456 Ry
     Harris-Foulkes estimate   =     -90.41149723 Ry
     estimated scf accuracy    <       0.00006401 Ry

     iteration #166     ecut=    40.00 Ry     beta= 0.50
     Davidson diagonalization with overlap
     ethr =  3.18E-09,  avg # of iterations =  2.8

     total cpu time spent up to now is      346.2 secs

     total energy              =     -90.41149724 Ry
     Harris-Foulkes estimate   =     -90.41149902 Ry
     estimated scf accuracy    <       0.00006046 Ry

     iteration #167     ecut=    40.00 Ry     beta= 0.50
     Davidson diagonalization with overlap
     ethr =  3.18E-09,  avg # of iterations =  2.7

     total cpu time spent up to now is      350.1 secs

     total energy              =     -90.41148673 Ry
     Harris-Foulkes estimate   =     -90.41149846 Ry
     estimated scf accuracy    <       0.00022342 Ry

     iteration #168     ecut=    40.00 Ry     beta= 0.50
     Davidson diagonalization with overlap
     c_bands:  3 eigenvalues not converged
     ethr =  3.18E-09,  avg # of iterations =  4.0

     total cpu time spent up to now is      355.7 secs

     total energy              =     -90.41149302 Ry
     Harris-Foulkes estimate   =     -90.41151090 Ry
     estimated scf accuracy    <       0.00052635 Ry

     iteration #169     ecut=    40.00 Ry     beta= 0.50
     Davidson diagonalization with overlap
     c_bands:  2 eigenvalues not converged
     ethr =  3.18E-09,  avg # of iterations =  4.0

     total cpu time spent up to now is      361.4 secs

     total energy              =     -90.41149654 Ry
     Harris-Foulkes estimate   =     -90.41149874 Ry
     estimated scf accuracy    <       0.00008090 Ry

     iteration #170     ecut=    40.00 Ry     beta= 0.50
     Davidson diagonalization with overlap
     ethr =  3.18E-09,  avg # of iterations =  1.5

     total cpu time spent up to now is      364.4 secs

     total energy              =     -90.41149647 Ry
     Harris-Foulkes estimate   =     -90.41149666 Ry
     estimated scf accuracy    <       0.00006291 Ry

     iteration #171     ecut=    40.00 Ry     beta= 0.50
     Davidson diagonalization with overlap
     ethr =  3.18E-09,  avg # of iterations =  1.0

     total cpu time spent up to now is      366.9 secs

     total energy              =     -90.41149636 Ry
     Harris-Foulkes estimate   =     -90.41149648 Ry
     estimated scf accuracy    <       0.00006230 Ry

     iteration #172     ecut=    40.00 Ry     beta= 0.50
     Davidson diagonalization with overlap
     ethr =  3.18E-09,  avg # of iterations =  1.0

     total cpu time spent up to now is      369.5 secs

     total energy              =     -90.41149802 Ry
     Harris-Foulkes estimate   =     -90.41149636 Ry
     estimated scf accuracy    <       0.00006078 Ry

     iteration #173     ecut=    40.00 Ry     beta= 0.50
     Davidson diagonalization with overlap
     ethr =  3.18E-09,  avg # of iterations =  1.2

     total cpu time spent up to now is      372.3 secs

     total energy              =     -90.41149873 Ry
     Harris-Foulkes estimate   =     -90.41149815 Ry
     estimated scf accuracy    <       0.00006538 Ry

     iteration #174     ecut=    40.00 Ry     beta= 0.50
     Davidson diagonalization with overlap
     ethr =  3.18E-09,  avg # of iterations =  2.0

     total cpu time spent up to now is      376.4 secs

     total energy              =     -90.41150061 Ry
     Harris-Foulkes estimate   =     -90.41150106 Ry
     estimated scf accuracy    <       0.00013811 Ry

     iteration #175     ecut=    40.00 Ry     beta= 0.50
     Davidson diagonalization with overlap
     ethr =  3.18E-09,  avg # of iterations =  2.2

     total cpu time spent up to now is      380.1 secs

     total energy              =     -90.41150014 Ry
     Harris-Foulkes estimate   =     -90.41150128 Ry
     estimated scf accuracy    <       0.00017294 Ry

     iteration #176     ecut=    40.00 Ry     beta= 0.50
     Davidson diagonalization with overlap
     ethr =  3.18E-09,  avg # of iterations =  1.8

     total cpu time spent up to now is      383.5 secs

     total energy              =     -90.41149201 Ry
     Harris-Foulkes estimate   =     -90.41150052 Ry
     estimated scf accuracy    <       0.00023227 Ry

     iteration #177     ecut=    40.00 Ry     beta= 0.50
     Davidson diagonalization with overlap
     c_bands:  3 eigenvalues not converged
     ethr =  3.18E-09,  avg # of iterations =  5.5

     total cpu time spent up to now is      391.2 secs

     total energy              =     -90.41149663 Ry
     Harris-Foulkes estimate   =     -90.41151930 Ry
     estimated scf accuracy    <       0.00021836 Ry

     iteration #178     ecut=    40.00 Ry     beta= 0.50
     Davidson diagonalization with overlap
     c_bands:  2 eigenvalues not converged
     ethr =  3.18E-09,  avg # of iterations =  5.0

     total cpu time spent up to now is      398.1 secs

     total energy              =     -90.41149828 Ry
     Harris-Foulkes estimate   =     -90.41150840 Ry
     estimated scf accuracy    <       0.00013957 Ry

     iteration #179     ecut=    40.00 Ry     beta= 0.50
     Davidson diagonalization with overlap
     ethr =  3.18E-09,  avg # of iterations =  3.1

     total cpu time spent up to now is      403.0 secs

     total energy              =     -90.41149806 Ry
     Harris-Foulkes estimate   =     -90.41149991 Ry
     estimated scf accuracy    <       0.00006905 Ry

     iteration #180     ecut=    40.00 Ry     beta= 0.50
     Davidson diagonalization with overlap
     ethr =  3.18E-09,  avg # of iterations =  1.9

     total cpu time spent up to now is      406.7 secs

     total energy              =     -90.41149825 Ry
     Harris-Foulkes estimate   =     -90.41149890 Ry
     estimated scf accuracy    <       0.00007807 Ry

     iteration #181     ecut=    40.00 Ry     beta= 0.50
     Davidson diagonalization with overlap
     ethr =  3.18E-09,  avg # of iterations =  1.0

     total cpu time spent up to now is      409.5 secs

     total energy              =     -90.41149744 Ry
     Harris-Foulkes estimate   =     -90.41149829 Ry
     estimated scf accuracy    <       0.00007617 Ry

     iteration #182     ecut=    40.00 Ry     beta= 0.50
     Davidson diagonalization with overlap
     ethr =  3.18E-09,  avg # of iterations =  1.0

     total cpu time spent up to now is      412.3 secs

     total energy              =     -90.41148790 Ry
     Harris-Foulkes estimate   =     -90.41149750 Ry
     estimated scf accuracy    <       0.00007517 Ry

     iteration #183     ecut=    40.00 Ry     beta= 0.50
     Davidson diagonalization with overlap
     c_bands:  4 eigenvalues not converged
     ethr =  3.18E-09,  avg # of iterations =  5.2

     total cpu time spent up to now is      420.0 secs

     total energy              =     -90.41148723 Ry
     Harris-Foulkes estimate   =     -90.41152525 Ry
     estimated scf accuracy    <       0.00021681 Ry

     iteration #184     ecut=    40.00 Ry     beta= 0.50
     Davidson diagonalization with overlap
     c_bands:  4 eigenvalues not converged
     ethr =  3.18E-09,  avg # of iterations =  5.6

     total cpu time spent up to now is      428.3 secs

     total energy              =     -90.41149591 Ry
     Harris-Foulkes estimate   =     -90.41150067 Ry
     estimated scf accuracy    <       0.00011722 Ry

     iteration #185     ecut=    40.00 Ry     beta= 0.50
     Davidson diagonalization with overlap
     ethr =  3.18E-09,  avg # of iterations =  4.4

     total cpu time spent up to now is      434.7 secs

     total energy              =     -90.41149637 Ry
     Harris-Foulkes estimate   =     -90.41150059 Ry
     estimated scf accuracy    <       0.00005988 Ry

     iteration #186     ecut=    40.00 Ry     beta= 0.50
     Davidson diagonalization with overlap
     ethr =  3.18E-09,  avg # of iterations =  3.3

     total cpu time spent up to now is      440.1 secs

     total energy              =     -90.41149856 Ry
     Harris-Foulkes estimate   =     -90.41149868 Ry
     estimated scf accuracy    <       0.00011485 Ry

     iteration #187     ecut=    40.00 Ry     beta= 0.50
     Davidson diagonalization with overlap
     ethr =  3.18E-09,  avg # of iterations =  1.3

     total cpu time spent up to now is      443.2 secs

     total energy              =     -90.41149766 Ry
     Harris-Foulkes estimate   =     -90.41149867 Ry
     estimated scf accuracy    <       0.00010818 Ry

     iteration #188     ecut=    40.00 Ry     beta= 0.50
     Davidson diagonalization with overlap
     c_bands:  2 eigenvalues not converged
     ethr =  3.18E-09,  avg # of iterations =  3.4

     total cpu time spent up to now is      448.4 secs

     total energy              =     -90.41149017 Ry
     Harris-Foulkes estimate   =     -90.41150062 Ry
     estimated scf accuracy    <       0.00007613 Ry

     iteration #189     ecut=    40.00 Ry     beta= 0.50
     Davidson diagonalization with overlap
     c_bands:  4 eigenvalues not converged
     ethr =  3.18E-09,  avg # of iterations =  4.9

     total cpu time spent up to now is      455.5 secs

     total energy              =     -90.41149524 Ry
     Harris-Foulkes estimate   =     -90.41150781 Ry
     estimated scf accuracy    <       0.00012382 Ry

     iteration #190     ecut=    40.00 Ry     beta= 0.50
     Davidson diagonalization with overlap
     ethr =  3.18E-09,  avg # of iterations =  3.4

     total cpu time spent up to now is      461.1 secs

     total energy              =     -90.41149625 Ry
     Harris-Foulkes estimate   =     -90.41149726 Ry
     estimated scf accuracy    <       0.00005610 Ry

     iteration #191     ecut=    40.00 Ry     beta= 0.50
     Davidson diagonalization with overlap
     ethr =  3.18E-09,  avg # of iterations =  2.2

     total cpu time spent up to now is      465.3 secs

     total energy              =     -90.41149524 Ry
     Harris-Foulkes estimate   =     -90.41149800 Ry
     estimated scf accuracy    <       0.00004190 Ry

     iteration #192     ecut=    40.00 Ry     beta= 0.50
     Davidson diagonalization with overlap
     c_bands:  4 eigenvalues not converged
     ethr =  3.18E-09,  avg # of iterations =  5.1

     total cpu time spent up to now is      472.9 secs

     total energy              =     -90.41149779 Ry
     Harris-Foulkes estimate   =     -90.41151348 Ry
     estimated scf accuracy    <       0.00016405 Ry

     iteration #193     ecut=    40.00 Ry     beta= 0.50
     Davidson diagonalization with overlap
     ethr =  3.18E-09,  avg # of iterations =  3.9

     total cpu time spent up to now is      479.0 secs

     total energy              =     -90.41149698 Ry
     Harris-Foulkes estimate   =     -90.41150077 Ry
     estimated scf accuracy    <       0.00008033 Ry

     iteration #194     ecut=    40.00 Ry     beta= 0.50
     Davidson diagonalization with overlap
     ethr =  3.18E-09,  avg # of iterations =  1.7

     total cpu time spent up to now is      482.6 secs

     total energy              =     -90.41149519 Ry
     Harris-Foulkes estimate   =     -90.41149714 Ry
     estimated scf accuracy    <       0.00006481 Ry

     iteration #195     ecut=    40.00 Ry     beta= 0.50
     Davidson diagonalization with overlap
     ethr =  3.18E-09,  avg # of iterations =  1.2

     total cpu time spent up to now is      485.7 secs

     total energy              =     -90.41149236 Ry
     Harris-Foulkes estimate   =     -90.41149526 Ry
     estimated scf accuracy    <       0.00005668 Ry

     iteration #196     ecut=    40.00 Ry     beta= 0.50
     Davidson diagonalization with overlap
     ethr =  3.18E-09,  avg # of iterations =  2.5

     total cpu time spent up to now is      490.1 secs

     total energy              =     -90.41149278 Ry
     Harris-Foulkes estimate   =     -90.41149255 Ry
     estimated scf accuracy    <       0.00004470 Ry

     iteration #197     ecut=    40.00 Ry     beta= 0.50
     Davidson diagonalization with overlap
     ethr =  3.18E-09,  avg # of iterations =  1.3

     total cpu time spent up to now is      493.4 secs

     total energy              =     -90.41147523 Ry
     Harris-Foulkes estimate   =     -90.41149284 Ry
     estimated scf accuracy    <       0.00004642 Ry

     iteration #198     ecut=    40.00 Ry     beta= 0.50
     Davidson diagonalization with overlap
     c_bands:  4 eigenvalues not converged
     ethr =  3.18E-09,  avg # of iterations =  5.3

     total cpu time spent up to now is      502.3 secs

     total energy              =     -90.41149316 Ry
     Harris-Foulkes estimate   =     -90.41154777 Ry
     estimated scf accuracy    <       0.00030329 Ry

     iteration #199     ecut=    40.00 Ry     beta= 0.50
     Davidson diagonalization with overlap
     ethr =  3.18E-09,  avg # of iterations =  4.8

     total cpu time spent up to now is      510.2 secs

     total energy              =     -90.41148674 Ry
     Harris-Foulkes estimate   =     -90.41150259 Ry
[...]

     total cpu time spent up to now is      537.1 secs

     total energy              =     -90.41149776 Ry
     Harris-Foulkes estimate   =     -90.41149773 Ry
     estimated scf accuracy    <       0.00003192 Ry

     iteration #205     ecut=    40.00 Ry     beta= 0.50
     Davidson diagonalization with overlap
     ethr =  3.18E-09,  avg # of iterations =  2.0

     total cpu time spent up to now is      541.4 secs

     total energy              =     -90.41149532 Ry
     Harris-Foulkes estimate   =     -90.41149801 Ry
     estimated scf accuracy    <       0.00003254 Ry

     iteration #206     ecut=    40.00 Ry     beta= 0.50
     Davidson diagonalization with overlap
     ethr =  3.18E-09,  avg # of iterations =  3.1

     total cpu time spent up to now is      546.8 secs

     total energy              =     -90.41149427 Ry
     Harris-Foulkes estimate   =     -90.41149790 Ry
     estimated scf accuracy    <       0.00005982 Ry

     iteration #207     ecut=    40.00 Ry     beta= 0.50
     Davidson diagonalization with overlap
     c_bands:  4 eigenvalues not converged
     ethr =  3.18E-09,  avg # of iterations =  4.8

     total cpu time spent up to now is      554.6 secs

     total energy              =     -90.41149574 Ry
     Harris-Foulkes estimate   =     -90.41150831 Ry
     estimated scf accuracy    <       0.00015332 Ry

     iteration #208     ecut=    40.00 Ry     beta= 0.50
     Davidson diagonalization with overlap
     ethr =  3.18E-09,  avg # of iterations =  3.2

     total cpu time spent up to now is      560.6 secs

     total energy              =     -90.41150258 Ry
     Harris-Foulkes estimate   =     -90.41149863 Ry
     estimated scf accuracy    <       0.00006523 Ry

     iteration #209     ecut=    40.00 Ry     beta= 0.50
     Davidson diagonalization with overlap
     ethr =  3.18E-09,  avg # of iterations =  4.5

     total cpu time spent up to now is      568.2 secs

     total energy              =     -90.41149570 Ry
     Harris-Foulkes estimate   =     -90.41151162 Ry
     estimated scf accuracy    <       0.00014441 Ry

     iteration #210     ecut=    40.00 Ry     beta= 0.50
     Davidson diagonalization with overlap
     ethr =  3.18E-09,  avg # of iterations =  4.7

     total cpu time spent up to now is      576.0 secs

     total energy              =     -90.41149780 Ry
     Harris-Foulkes estimate   =     -90.41150099 Ry
     estimated scf accuracy    <       0.00008465 Ry

     iteration #211     ecut=    40.00 Ry     beta= 0.50
     Davidson diagonalization with overlap
     ethr =  3.18E-09,  avg # of iterations =  2.9

     total cpu time spent up to now is      581.4 secs

     total energy              =     -90.41150007 Ry
     Harris-Foulkes estimate   =     -90.41149844 Ry
     estimated scf accuracy    <       0.00006141 Ry

     iteration #212     ecut=    40.00 Ry     beta= 0.50
     Davidson diagonalization with overlap
     ethr =  3.18E-09,  avg # of iterations =  1.0

     total cpu time spent up to now is      584.8 secs

     total energy              =     -90.41149948 Ry
     Harris-Foulkes estimate   =     -90.41150016 Ry
     estimated scf accuracy    <       0.00006987 Ry

     iteration #213     ecut=    40.00 Ry     beta= 0.50
     Davidson diagonalization with overlap
     ethr =  3.18E-09,  avg # of iterations =  1.0

     total cpu time spent up to now is      588.1 secs

     total energy              =     -90.41150950 Ry
     Harris-Foulkes estimate   =     -90.41149949 Ry
     estimated scf accuracy    <       0.00006683 Ry

     iteration #214     ecut=    40.00 Ry     beta= 0.50
     Davidson diagonalization with overlap
     ethr =  3.18E-09,  avg # of iterations =  3.8

     total cpu time spent up to now is      594.8 secs

     total energy              =     -90.41149321 Ry
     Harris-Foulkes estimate   =     -90.41151151 Ry
     estimated scf accuracy    <       0.00014173 Ry

     iteration #215     ecut=    40.00 Ry     beta= 0.50
     Davidson diagonalization with overlap
     c_bands:  4 eigenvalues not converged
     ethr =  3.18E-09,  avg # of iterations =  5.6

     total cpu time spent up to now is      604.5 secs

     total energy              =     -90.41147821 Ry
     Harris-Foulkes estimate   =     -90.41152066 Ry
     estimated scf accuracy    <       0.00064328 Ry

     iteration #216     ecut=    40.00 Ry     beta= 0.50
     Davidson diagonalization with overlap
     ethr =  3.18E-09,  avg # of iterations =  5.2

     total cpu time spent up to now is      613.6 secs

     total energy              =     -90.41150289 Ry
     Harris-Foulkes estimate   =     -90.41153760 Ry
     estimated scf accuracy    <       0.00030239 Ry

     iteration #217     ecut=    40.00 Ry     beta= 0.50
     Davidson diagonalization with overlap
     ethr =  3.18E-09,  avg # of iterations =  4.7

     total cpu time spent up to now is      622.8 secs

     total energy              =     -90.41150064 Ry
     Harris-Foulkes estimate   =     -90.41150850 Ry
     estimated scf accuracy    <       0.00011976 Ry

     iteration #218     ecut=    40.00 Ry     beta= 0.50
     Davidson diagonalization with overlap
     ethr =  3.18E-09,  avg # of iterations =  4.5

     total cpu time spent up to now is      630.7 secs

     total energy              =     -90.41150010 Ry
     Harris-Foulkes estimate   =     -90.41150671 Ry
     estimated scf accuracy    <       0.00011173 Ry

     iteration #219     ecut=    40.00 Ry     beta= 0.50
     Davidson diagonalization with overlap
     ethr =  3.18E-09,  avg # of iterations =  3.7

     total cpu time spent up to now is      637.4 secs

     total energy              =     -90.41149784 Ry
     Harris-Foulkes estimate   =     -90.41150164 Ry
     estimated scf accuracy    <       0.00007182 Ry

     iteration #220     ecut=    40.00 Ry     beta= 0.50
     Davidson diagonalization with overlap
     ethr =  3.18E-09,  avg # of iterations =  2.1

     total cpu time spent up to now is      642.0 secs

     total energy              =     -90.41149582 Ry
     Harris-Foulkes estimate   =     -90.41149804 Ry
     estimated scf accuracy    <       0.00005340 Ry

     iteration #221     ecut=    40.00 Ry     beta= 0.50
     Davidson diagonalization with overlap
     ethr =  3.18E-09,  avg # of iterations =  1.3

     total cpu time spent up to now is      646.0 secs

     total energy              =     -90.41149027 Ry
     Harris-Foulkes estimate   =     -90.41149592 Ry
     estimated scf accuracy    <       0.00004254 Ry

     iteration #222     ecut=    40.00 Ry     beta= 0.50
     Davidson diagonalization with overlap
     c_bands:  2 eigenvalues not converged
     ethr =  3.18E-09,  avg # of iterations =  4.5

     total cpu time spent up to now is      654.0 secs

     total energy              =     -90.41151773 Ry
     Harris-Foulkes estimate   =     -90.41150437 Ry
     estimated scf accuracy    <       0.00008619 Ry

     iteration #223     ecut=    40.00 Ry     beta= 0.50
     Davidson diagonalization with overlap
     c_bands:  1 eigenvalues not converged
     ethr =  3.18E-09,  avg # of iterations =  4.8

     total cpu time spent up to now is      662.4 secs

     total energy              =     -90.41151007 Ry
     Harris-Foulkes estimate   =     -90.41152385 Ry
     estimated scf accuracy    <       0.00020088 Ry

     iteration #224     ecut=    40.00 Ry     beta= 0.50
     Davidson diagonalization with overlap
     ethr =  3.18E-09,  avg # of iterations =  3.5

     total cpu time spent up to now is      669.2 secs

     total energy              =     -90.41150280 Ry
     Harris-Foulkes estimate   =     -90.41151096 Ry
     estimated scf accuracy    <       0.00013483 Ry

     iteration #225     ecut=    40.00 Ry     beta= 0.50
     Davidson diagonalization with overlap
     ethr =  3.18E-09,  avg # of iterations =  3.9

     total cpu time spent up to now is      676.6 secs

     total energy              =     -90.41150026 Ry
     Harris-Foulkes estimate   =     -90.41150343 Ry
     estimated scf accuracy    <       0.00009160 Ry

     iteration #226     ecut=    40.00 Ry     beta= 0.50
     Davidson diagonalization with overlap
     ethr =  3.18E-09,  avg # of iterations =  2.4

     total cpu time spent up to now is      681.9 secs

     total energy              =     -90.41149467 Ry
     Harris-Foulkes estimate   =     -90.41150044 Ry
     estimated scf accuracy    <       0.00007696 Ry

     iteration #227     ecut=    40.00 Ry     beta= 0.50
     Davidson diagonalization with overlap
     ethr =  3.18E-09,  avg # of iterations =  3.5

     total cpu time spent up to now is      688.8 secs

     total energy              =     -90.41149534 Ry
     Harris-Foulkes estimate   =     -90.41149690 Ry
     estimated scf accuracy    <       0.00008196 Ry

     iteration #228     ecut=    40.00 Ry     beta= 0.50
     Davidson diagonalization with overlap
     c_bands:  2 eigenvalues not converged
     ethr =  3.18E-09,  avg # of iterations =  4.6

     total cpu time spent up to now is      697.1 secs

     total energy              =     -90.41149839 Ry
     Harris-Foulkes estimate   =     -90.41150311 Ry
     estimated scf accuracy    <       0.00008346 Ry

     iteration #229     ecut=    40.00 Ry     beta= 0.50
     Davidson diagonalization with overlap
     ethr =  3.18E-09,  avg # of iterations =  3.4

     total cpu time spent up to now is      703.5 secs

     total energy              =     -90.41149773 Ry
     Harris-Foulkes estimate   =     -90.41149888 Ry
     estimated scf accuracy    <       0.00006571 Ry

     iteration #230     ecut=    40.00 Ry     beta= 0.50
     Davidson diagonalization with overlap
     ethr =  3.18E-09,  avg # of iterations =  1.0

     total cpu time spent up to now is      707.2 secs

     total energy              =     -90.41147934 Ry
     Harris-Foulkes estimate   =     -90.41149776 Ry
     estimated scf accuracy    <       0.00005960 Ry

     iteration #231     ecut=    40.00 Ry     beta= 0.50
     Davidson diagonalization with overlap
     c_bands:  4 eigenvalues not converged
     ethr =  3.18E-09,  avg # of iterations =  5.6

     total cpu time spent up to now is      717.7 secs

     total energy              =     -90.41151711 Ry
     Harris-Foulkes estimate   =     -90.41152537 Ry
     estimated scf accuracy    <       0.00020371 Ry

     iteration #232     ecut=    40.00 Ry     beta= 0.50
     Davidson diagonalization with overlap
     ethr =  3.18E-09,  avg # of iterations =  3.0

     total cpu time spent up to now is      724.3 secs

     total energy              =     -90.41149575 Ry
     Harris-Foulkes estimate   =     -90.41151856 Ry
     estimated scf accuracy    <       0.00016906 Ry

     iteration #233     ecut=    40.00 Ry     beta= 0.50
     Davidson diagonalization with overlap
     ethr =  3.18E-09,  avg # of iterations =  3.9

     total cpu time spent up to now is      732.1 secs

     total energy              =     -90.41149929 Ry
     Harris-Foulkes estimate   =     -90.41149930 Ry
     estimated scf accuracy    <       0.00006428 Ry

     iteration #234     ecut=    40.00 Ry     beta= 0.50
     Davidson diagonalization with overlap
     ethr =  3.18E-09,  avg # of iterations =  2.1

     total cpu time spent up to now is      737.6 secs

     total energy              =     -90.41149959 Ry
     Harris-Foulkes estimate   =     -90.41150014 Ry
     estimated scf accuracy    <       0.00010090 Ry

     iteration #235     ecut=    40.00 Ry     beta= 0.50
     Davidson diagonalization with overlap
     ethr =  3.18E-09,  avg # of iterations =  2.2

     total cpu time spent up to now is      743.0 secs

     total energy              =     -90.41149732 Ry
     Harris-Foulkes estimate   =     -90.41150026 Ry
     estimated scf accuracy    <       0.00006033 Ry

     iteration #236     ecut=    40.00 Ry     beta= 0.50
     Davidson diagonalization with overlap
     ethr =  3.18E-09,  avg # of iterations =  1.2

     total cpu time spent up to now is      746.9 secs

     total energy              =     -90.41149560 Ry
     Harris-Foulkes estimate   =     -90.41149744 Ry
     estimated scf accuracy    <       0.00004738 Ry

     iteration #237     ecut=    40.00 Ry     beta= 0.50
     Davidson diagonalization with overlap
     ethr =  3.18E-09,  avg # of iterations =  2.4

     total cpu time spent up to now is      752.5 secs

     total energy              =     -90.41149808 Ry
     Harris-Foulkes estimate   =     -90.41149817 Ry
     estimated scf accuracy    <       0.00004727 Ry

     iteration #238     ecut=    40.00 Ry     beta= 0.50
     Davidson diagonalization with overlap
     ethr =  3.18E-09,  avg # of iterations =  1.0

     total cpu time spent up to now is      756.2 secs

     total energy              =     -90.41149803 Ry
     Harris-Foulkes estimate   =     -90.41149808 Ry
     estimated scf accuracy    <       0.00004687 Ry

     iteration #239     ecut=    40.00 Ry     beta= 0.50
     Davidson diagonalization with overlap
     ethr =  3.18E-09,  avg # of iterations =  1.0

     total cpu time spent up to now is      759.9 secs

     total energy              =     -90.41150031 Ry
     Harris-Foulkes estimate   =     -90.41149803 Ry
     estimated scf accuracy    <       0.00004673 Ry

     iteration #240     ecut=    40.00 Ry     beta= 0.50
     Davidson diagonalization with overlap
     ethr =  3.18E-09,  avg # of iterations =  1.3

     total cpu time spent up to now is      764.1 secs

     total energy              =     -90.41150170 Ry
     Harris-Foulkes estimate   =     -90.41150041 Ry
     estimated scf accuracy    <       0.00005877 Ry

     iteration #241     ecut=    40.00 Ry     beta= 0.50
     Davidson diagonalization with overlap
     ethr =  3.18E-09,  avg # of iterations =  1.8

     total cpu time spent up to now is      769.2 secs

     total energy              =     -90.41149944 Ry
     Harris-Foulkes estimate   =     -90.41150225 Ry
     estimated scf accuracy    <       0.00008223 Ry

     iteration #242     ecut=    40.00 Ry     beta= 0.50
     Davidson diagonalization with overlap
     ethr =  3.18E-09,  avg # of iterations =  1.0

     total cpu time spent up to now is      773.0 secs

     total energy              =     -90.41149926 Ry
     Harris-Foulkes estimate   =     -90.41149951 Ry
     estimated scf accuracy    <       0.00007088 Ry

     iteration #243     ecut=    40.00 Ry     beta= 0.50
     Davidson diagonalization with overlap
     ethr =  3.18E-09,  avg # of iterations =  1.0

     total cpu time spent up to now is      776.8 secs

     total energy              =     -90.41149812 Ry
     Harris-Foulkes estimate   =     -90.41149927 Ry
     estimated scf accuracy    <       0.00006962 Ry

     iteration #244     ecut=    40.00 Ry     beta= 0.50
     Davidson diagonalization with overlap
     ethr =  3.18E-09,  avg # of iterations =  1.0

     total cpu time spent up to now is      780.7 secs

     total energy              =     -90.41149792 Ry
     Harris-Foulkes estimate   =     -90.41149815 Ry
     estimated scf accuracy    <       0.00006408 Ry

     iteration #245     ecut=    40.00 Ry     beta= 0.50
     Davidson diagonalization with overlap
     ethr =  3.18E-09,  avg # of iterations =  1.0

     total cpu time spent up to now is      784.5 secs

     total energy              =     -90.41147793 Ry
     Harris-Foulkes estimate   =     -90.41149792 Ry
     estimated scf accuracy    <       0.00006309 Ry

     iteration #246     ecut=    40.00 Ry     beta= 0.50
     Davidson diagonalization with overlap
     c_bands:  4 eigenvalues not converged
     ethr =  3.18E-09,  avg # of iterations =  5.4

     total cpu time spent up to now is      795.4 secs

     total energy              =     -90.41150861 Ry
     Harris-Foulkes estimate   =     -90.41152641 Ry
     estimated scf accuracy    <       0.00020121 Ry

     iteration #247     ecut=    40.00 Ry     beta= 0.50
     Davidson diagonalization with overlap
     ethr =  3.18E-09,  avg # of iterations =  4.2

     total cpu time spent up to now is      804.2 secs

     total energy              =     -90.41150516 Ry
     Harris-Foulkes estimate   =     -90.41151031 Ry
     estimated scf accuracy    <       0.00011895 Ry

     iteration #248     ecut=    40.00 Ry     beta= 0.50
     Davidson diagonalization with overlap
     ethr =  3.18E-09,  avg # of iterations =  1.7

     total cpu time spent up to now is      808.9 secs

     total energy              =     -90.41149957 Ry
     Harris-Foulkes estimate   =     -90.41150533 Ry
     estimated scf accuracy    <       0.00009652 Ry

     iteration #249     ecut=    40.00 Ry     beta= 0.50
     Davidson diagonalization with overlap
     ethr =  3.18E-09,  avg # of iterations =  3.1

     total cpu time spent up to now is      816.1 secs

     total energy              =     -90.41149992 Ry
     Harris-Foulkes estimate   =     -90.41150018 Ry
     estimated scf accuracy    <       0.00006309 Ry

     iteration #250     ecut=    40.00 Ry     beta= 0.50
     Davidson diagonalization with overlap
     ethr =  3.18E-09,  avg # of iterations =  1.2

     total cpu time spent up to now is      820.2 secs

     total energy              =     -90.41150045 Ry
     Harris-Foulkes estimate   =     -90.41149993 Ry
     estimated scf accuracy    <       0.00006106 Ry

     End of self-consistent calculation

     convergence NOT achieved after 250 iterations: stopping

     Writing output data file ./pp.save/
 
     init_run     :      0.86s CPU      1.57s WALL (       1 calls)
     electrons    :    807.97s CPU    818.64s WALL (       1 calls)

     Called by init_run:
     wfcinit      :      0.26s CPU      0.28s WALL (       1 calls)
     potinit      :      0.09s CPU      0.09s WALL (       1 calls)
     hinit0       :      0.51s CPU      1.19s WALL (       1 calls)

     Called by electrons:
     c_bands      :    783.14s CPU    793.20s WALL (     250 calls)
     sum_band     :     18.57s CPU     19.01s WALL (     250 calls)
     v_of_rho     :      1.49s CPU      1.52s WALL (     251 calls)
     newd         :      0.29s CPU      0.30s WALL (     251 calls)
     mix_rho      :      3.99s CPU      4.01s WALL (     250 calls)

     Called by c_bands:
     init_us_2    :      0.10s CPU      0.10s WALL (    6012 calls)
     cegterg      :    780.72s CPU    790.62s WALL (    3000 calls)

     Called by sum_band:
     sum_band:bec :      0.04s CPU      0.04s WALL (    3000 calls)
     addusdens    :      0.04s CPU      0.04s WALL (     250 calls)

     Called by *egterg:
     h_psi        :     90.00s CPU     92.03s WALL (   10938 calls)
     s_psi        :      0.25s CPU      0.25s WALL (   10938 calls)
     g_psi        :      0.02s CPU      0.02s WALL (    7926 calls)
     cdiaghg      :    288.03s CPU    290.51s WALL (   10926 calls)

     Called by h_psi:
     h_psi:calbec :      8.05s CPU      8.23s WALL (   10938 calls)
     vloc_psi     :     81.57s CPU     83.41s WALL (   10938 calls)
     add_vuspsi   :      0.32s CPU      0.32s WALL (   10938 calls)

     General routines
     calbec       :     10.09s CPU     10.31s WALL (   13938 calls)
     fft          :      1.72s CPU      2.42s WALL (    2761 calls)
     ffts         :      0.16s CPU      0.17s WALL (     250 calls)
     fftw         :     96.62s CPU     98.80s WALL (  368996 calls)
     davcio       :      0.00s CPU      0.00s WALL (      30 calls)
 
     Parallel routines
     fft_scatt_xy :      1.16s CPU      1.19s WALL (  372007 calls)
     fft_scatt_yz :     93.08s CPU     95.87s WALL (  372007 calls)
 
     PWSCF        :  13m29.05s CPU  13m40.53s WALL

 
   This run was terminated on:   7:27:58   7Jul2022            

=------------------------------------------------------------------------------=
   JOB DONE.
=------------------------------------------------------------------------------=
