
     Program PWSCF v.6.5 starts on 10Jul2022 at 12: 2: 4 

     This program is part of the open-source Quantum ESPRESSO suite
     for quantum simulation of materials; please cite
         "P. Giannozzi et al., J. Phys.:Condens. Matter 21 395502 (2009);
         "P. Giannozzi et al., J. Phys.:Condens. Matter 29 465901 (2017);
          URL http://www.quantum-espresso.org", 
     in publications or presentations arising from this work. More details at
     http://www.quantum-espresso.org/quote

     Parallel version (MPI), running on    96 processors

     MPI processes distributed on     2 nodes
     R & G space division:  proc/nbgrp/npool/nimage =      96
     Waiting for input...
     Reading input from standard input
     Message from routine read_cards :
     DEPRECATED: no units specified in CELL_PARAMETERS card

     Current dimensions of program PWSCF are:
     Max number of different atomic species (ntypx) = 10
     Max number of k-points (npk) =  40000
     Max angular momentum in pseudopotentials (lmaxx) =  3

     Subspace diagonalization in iterative solution of the eigenvalue problem:
     one sub-group per band group will be used
     scalapack distributed-memory algorithm (size of sub-group:  9*  9 procs)

     Found symmetry operation: I + (  0.0000  0.5000  0.5000)
     This is a supercell, fractional translations are disabled
 
     Parallelization info
     --------------------
     sticks:   dense  smooth     PW     G-vecs:    dense   smooth      PW
     Min           5       5      1                  127      127      19
     Max           6       6      2                  132      132      28
     Sum         515     515    171                12371    12371    2311
 


     bravais-lattice index     =            0
     lattice parameter (alat)  =       4.4907  a.u.
     unit-cell volume          =     362.2448 (a.u.)^3
     number of atoms/cell      =            8
     number of atomic types    =            1
     number of electrons       =        32.00
     number of Kohn-Sham states=           20
     kinetic-energy cutoff     =      40.0000  Ry
     charge density cutoff     =     160.0000  Ry
     convergence threshold     =      1.0E-06
     mixing beta               =       0.5000
     number of iterations used =            8  plain     mixing
     Exchange-correlation=  SLA  PW   PBE  PBE
                           (   1   4   3   4   0   0   0)
     nstep                     =          250


     celldm(1)=   4.490700  celldm(2)=   0.000000  celldm(3)=   0.000000
     celldm(4)=   0.000000  celldm(5)=   0.000000  celldm(6)=   0.000000

     crystal axes: (cart. coord. in units of alat)
               a(1) = (   1.000000   0.000000   0.000000 )  
               a(2) = (   0.000000   2.000000   0.000000 )  
               a(3) = (   0.000000   0.000000   2.000000 )  

     reciprocal axes: (cart. coord. in units 2 pi/alat)
               b(1) = (  1.000000  0.000000  0.000000 )  
               b(2) = (  0.000000  0.500000  0.000000 )  
               b(3) = (  0.000000  0.000000  0.500000 )  


     PseudoPot. # 1 for C  read from file:
     ./C.pbe-van_bm.upf
     MD5 check sum: 1a69bf6b8db32088f5b2163dbdb77a27
     Pseudo is Ultrasoft, Zval =  4.0
     Generated by new atomic code, or converted to UPF format
     Using radial grid of  721 points,  4 beta functions with: 
                l(1) =   0
                l(2) =   0
                l(3) =   1
                l(4) =   1
     Q(r) pseudized with  8 coefficients,  rinner =    0.800   0.800   0.800


     atomic species   valence    mass     pseudopotential
        C              4.00    12.00000     C ( 1.00)

     No symmetry found



   Cartesian axes

     site n.     atom                  positions (alat units)
         1           C   tau(   1) = (   0.0000000   1.0000000   1.0000000  )
         2           C   tau(   2) = (   0.0000000   0.0000000   0.0000000  )
         3           C   tau(   3) = (   0.0000000   0.0000000   1.0000000  )
         4           C   tau(   4) = (   0.0000000   1.0000000   0.0000000  )
         5           C   tau(   5) = (   0.5000000   0.5000000   0.5000000  )
         6           C   tau(   6) = (   0.5000000   1.5000000   1.5000000  )
         7           C   tau(   7) = (   0.5000000   0.5000000   1.5000000  )
         8           C   tau(   8) = (   0.5000000   1.5000000   0.5000000  )

     number of k points=    12  Marzari-Vanderbilt smearing, width (Ry)=  0.0200
                       cart. coord. in units 2pi/alat
        k(    1) = (   0.0000000   0.0000000   0.0000000), wk =   0.1250000
        k(    2) = (   0.0000000   0.0000000  -0.2500000), wk =   0.1250000
        k(    3) = (   0.0000000  -0.2500000   0.0000000), wk =   0.1250000
        k(    4) = (   0.0000000  -0.2500000  -0.2500000), wk =   0.1250000
        k(    5) = (   0.2500000   0.0000000   0.0000000), wk =   0.2500000
        k(    6) = (   0.2500000   0.0000000  -0.2500000), wk =   0.2500000
        k(    7) = (   0.2500000  -0.2500000   0.0000000), wk =   0.2500000
        k(    8) = (   0.2500000  -0.2500000  -0.2500000), wk =   0.2500000
        k(    9) = (  -0.5000000   0.0000000   0.0000000), wk =   0.1250000
        k(   10) = (  -0.5000000   0.0000000  -0.2500000), wk =   0.1250000
        k(   11) = (  -0.5000000  -0.2500000   0.0000000), wk =   0.1250000
        k(   12) = (  -0.5000000  -0.2500000  -0.2500000), wk =   0.1250000

     Dense  grid:    12371 G-vectors     FFT dimensions: (  20,  40,  40)

     Estimated max dynamical RAM per process >       0.95 MB

     Estimated total dynamical RAM >      91.15 MB

     Initial potential from superposition of free atoms

     starting charge   31.99968, renormalised to   32.00000
     Starting wfcs are   32 randomized atomic wfcs

     total cpu time spent up to now is        0.6 secs

     Self-consistent Calculation

     iteration #  1     ecut=    40.00 Ry     beta= 0.50
     Davidson diagonalization with overlap
     ethr =  1.00E-02,  avg # of iterations =  2.0

     Threshold (ethr) on eigenvalues was too large:
     Diagonalizing with lowered threshold

     Davidson diagonalization with overlap
     ethr =  2.26E-05,  avg # of iterations =  2.8

     total cpu time spent up to now is        1.7 secs

     total energy              =     -88.62372370 Ry
     Harris-Foulkes estimate   =     -88.62392726 Ry
     estimated scf accuracy    <       0.00714806 Ry

     iteration #  2     ecut=    40.00 Ry     beta= 0.50
     Davidson diagonalization with overlap
     ethr =  2.23E-05,  avg # of iterations =  2.3

     total cpu time spent up to now is        2.3 secs

     total energy              =     -88.62270351 Ry
     Harris-Foulkes estimate   =     -88.62636963 Ry
     estimated scf accuracy    <       0.01754080 Ry

     iteration #  3     ecut=    40.00 Ry     beta= 0.50
     Davidson diagonalization with overlap
     ethr =  2.23E-05,  avg # of iterations =  1.5

     total cpu time spent up to now is        2.7 secs

     total energy              =     -88.62113597 Ry
     Harris-Foulkes estimate   =     -88.62337433 Ry
     estimated scf accuracy    <       0.00556252 Ry

     iteration #  4     ecut=    40.00 Ry     beta= 0.50
     Davidson diagonalization with overlap
     ethr =  1.74E-05,  avg # of iterations =  4.4

     total cpu time spent up to now is        3.7 secs

     total energy              =     -88.62316922 Ry
     Harris-Foulkes estimate   =     -88.62419491 Ry
     estimated scf accuracy    <       0.00646167 Ry

     iteration #  5     ecut=    40.00 Ry     beta= 0.50
     Davidson diagonalization with overlap
     ethr =  1.74E-05,  avg # of iterations =  2.2

     total cpu time spent up to now is        4.2 secs

     total energy              =     -88.62870231 Ry
     Harris-Foulkes estimate   =     -88.63237931 Ry
     estimated scf accuracy    <       0.04926559 Ry

     iteration #  6     ecut=    40.00 Ry     beta= 0.50
     Davidson diagonalization with overlap
     ethr =  1.74E-05,  avg # of iterations =  1.7

     total cpu time spent up to now is        4.7 secs

     total energy              =     -88.62425102 Ry
     Harris-Foulkes estimate   =     -88.62906441 Ry
     estimated scf accuracy    <       0.03206637 Ry

     iteration #  7     ecut=    40.00 Ry     beta= 0.50
     Davidson diagonalization with overlap
     ethr =  1.74E-05,  avg # of iterations =  3.0

     total cpu time spent up to now is        5.3 secs

     total energy              =     -88.62380654 Ry
     Harris-Foulkes estimate   =     -88.62515903 Ry
     estimated scf accuracy    <       0.01127517 Ry

     iteration #  8     ecut=    40.00 Ry     beta= 0.50
     Davidson diagonalization with overlap
     ethr =  1.74E-05,  avg # of iterations =  1.3

     total cpu time spent up to now is        5.7 secs

     total energy              =     -88.62296965 Ry
     Harris-Foulkes estimate   =     -88.62399278 Ry
     estimated scf accuracy    <       0.00607039 Ry

     iteration #  9     ecut=    40.00 Ry     beta= 0.50
     Davidson diagonalization with overlap
     ethr =  1.74E-05,  avg # of iterations =  1.5

     total cpu time spent up to now is        6.2 secs

     total energy              =     -88.62262841 Ry
     Harris-Foulkes estimate   =     -88.62324286 Ry
     estimated scf accuracy    <       0.00177729 Ry

     iteration # 10     ecut=    40.00 Ry     beta= 0.50
     Davidson diagonalization with overlap
     ethr =  5.55E-06,  avg # of iterations =  3.7

     total cpu time spent up to now is        6.9 secs

     total energy              =     -88.62313076 Ry
     Harris-Foulkes estimate   =     -88.62312760 Ry
     estimated scf accuracy    <       0.00015007 Ry

     iteration # 11     ecut=    40.00 Ry     beta= 0.50
     Davidson diagonalization with overlap
     ethr =  4.69E-07,  avg # of iterations =  1.9

     total cpu time spent up to now is        7.4 secs

     total energy              =     -88.62309835 Ry
     Harris-Foulkes estimate   =     -88.62313902 Ry
     estimated scf accuracy    <       0.00016955 Ry

     iteration # 12     ecut=    40.00 Ry     beta= 0.50
     Davidson diagonalization with overlap
     ethr =  4.69E-07,  avg # of iterations =  1.8

     total cpu time spent up to now is        7.9 secs

     total energy              =     -88.62310504 Ry
     Harris-Foulkes estimate   =     -88.62310969 Ry
     estimated scf accuracy    <       0.00002562 Ry

     iteration # 13     ecut=    40.00 Ry     beta= 0.50
     Davidson diagonalization with overlap
     ethr =  8.01E-08,  avg # of iterations =  3.5

     total cpu time spent up to now is        8.6 secs

     total energy              =     -88.62914779 Ry
     Harris-Foulkes estimate   =     -88.62944016 Ry
     estimated scf accuracy    <       0.03246589 Ry

     iteration # 14     ecut=    40.00 Ry     beta= 0.50
     Davidson diagonalization with overlap
     ethr =  8.01E-08,  avg # of iterations =  2.3

     total cpu time spent up to now is        9.2 secs

     total energy              =     -88.62950743 Ry
     Harris-Foulkes estimate   =     -88.62915089 Ry
     estimated scf accuracy    <       0.03096463 Ry

     iteration # 15     ecut=    40.00 Ry     beta= 0.50
     Davidson diagonalization with overlap
     ethr =  8.01E-08,  avg # of iterations =  2.4

     total cpu time spent up to now is        9.7 secs

     total energy              =     -88.62967285 Ry
     Harris-Foulkes estimate   =     -88.62951077 Ry
     estimated scf accuracy    <       0.03257841 Ry

     iteration # 16     ecut=    40.00 Ry     beta= 0.50
     Davidson diagonalization with overlap
     ethr =  8.01E-08,  avg # of iterations =  1.1

     total cpu time spent up to now is       10.1 secs

     total energy              =     -88.62958857 Ry
     Harris-Foulkes estimate   =     -88.62967371 Ry
     estimated scf accuracy    <       0.03326217 Ry

     iteration # 17     ecut=    40.00 Ry     beta= 0.50
     Davidson diagonalization with overlap
     ethr =  8.01E-08,  avg # of iterations =  1.0

     total cpu time spent up to now is       10.5 secs

     total energy              =     -88.62966068 Ry
     Harris-Foulkes estimate   =     -88.62958878 Ry
     estimated scf accuracy    <       0.03303174 Ry

     iteration # 18     ecut=    40.00 Ry     beta= 0.50
     Davidson diagonalization with overlap
     ethr =  8.01E-08,  avg # of iterations =  1.0

     total cpu time spent up to now is       10.9 secs

     total energy              =     -88.62796540 Ry
     Harris-Foulkes estimate   =     -88.62966093 Ry
     estimated scf accuracy    <       0.03334371 Ry

     iteration # 19     ecut=    40.00 Ry     beta= 0.50
     Davidson diagonalization with overlap
     ethr =  8.01E-08,  avg # of iterations =  3.5

     total cpu time spent up to now is       11.7 secs

     total energy              =     -88.62799277 Ry
     Harris-Foulkes estimate   =     -88.62804486 Ry
     estimated scf accuracy    <       0.02539388 Ry

     iteration # 20     ecut=    40.00 Ry     beta= 0.50
     Davidson diagonalization with overlap
     ethr =  8.01E-08,  avg # of iterations =  1.0

     total cpu time spent up to now is       12.1 secs

     total energy              =     -88.62841597 Ry
     Harris-Foulkes estimate   =     -88.62799302 Ry
     estimated scf accuracy    <       0.02518333 Ry

     iteration # 21     ecut=    40.00 Ry     beta= 0.50
     Davidson diagonalization with overlap
     ethr =  8.01E-08,  avg # of iterations =  2.5

     total cpu time spent up to now is       12.7 secs

     total energy              =     -88.61937199 Ry
     Harris-Foulkes estimate   =     -88.62842194 Ry
     estimated scf accuracy    <       0.02724505 Ry

     iteration # 22     ecut=    40.00 Ry     beta= 0.50
     Davidson diagonalization with overlap
     ethr =  8.01E-08,  avg # of iterations =  5.1

     total cpu time spent up to now is       14.1 secs

     total energy              =     -88.62312003 Ry
     Harris-Foulkes estimate   =     -88.62311296 Ry
     estimated scf accuracy    <       0.00003826 Ry

     iteration # 23     ecut=    40.00 Ry     beta= 0.50
     Davidson diagonalization with overlap
     ethr =  8.01E-08,  avg # of iterations =  2.7

     total cpu time spent up to now is       14.8 secs

     total energy              =     -88.62312959 Ry
     Harris-Foulkes estimate   =     -88.62312923 Ry
     estimated scf accuracy    <       0.00013007 Ry

     iteration # 24     ecut=    40.00 Ry     beta= 0.50
     Davidson diagonalization with overlap
     ethr =  8.01E-08,  avg # of iterations =  1.2

     total cpu time spent up to now is       15.2 secs

     total energy              =     -88.62311677 Ry
     Harris-Foulkes estimate   =     -88.62313124 Ry
     estimated scf accuracy    <       0.00013319 Ry

     iteration # 25     ecut=    40.00 Ry     beta= 0.50
     Davidson diagonalization with overlap
     ethr =  8.01E-08,  avg # of iterations =  2.1

     total cpu time spent up to now is       15.7 secs

     total energy              =     -88.62308403 Ry
     Harris-Foulkes estimate   =     -88.62311948 Ry
     estimated scf accuracy    <       0.00007317 Ry

     iteration # 26     ecut=    40.00 Ry     beta= 0.50
     Davidson diagonalization with overlap
     ethr =  8.01E-08,  avg # of iterations =  3.3

     total cpu time spent up to now is       16.6 secs

     total energy              =     -88.62310017 Ry
     Harris-Foulkes estimate   =     -88.62311489 Ry
     estimated scf accuracy    <       0.00004585 Ry

     iteration # 27     ecut=    40.00 Ry     beta= 0.50
     Davidson diagonalization with overlap
     ethr =  8.01E-08,  avg # of iterations =  2.5

     total cpu time spent up to now is       17.2 secs

     total energy              =     -88.62310694 Ry
     Harris-Foulkes estimate   =     -88.62310710 Ry
     estimated scf accuracy    <       0.00000130 Ry

     iteration # 28     ecut=    40.00 Ry     beta= 0.50
     Davidson diagonalization with overlap
     c_bands:  2 eigenvalues not converged
     ethr =  4.07E-09,  avg # of iterations =  4.3

     total cpu time spent up to now is       18.3 secs

     total energy              =     -88.62751876 Ry
     Harris-Foulkes estimate   =     -88.62925379 Ry
     estimated scf accuracy    <       0.03141286 Ry

     iteration # 29     ecut=    40.00 Ry     beta= 0.50
     Davidson diagonalization with overlap
     ethr =  4.07E-09,  avg # of iterations =  4.6

     total cpu time spent up to now is       19.6 secs

     total energy              =     -88.62831359 Ry
     Harris-Foulkes estimate   =     -88.62761006 Ry
     estimated scf accuracy    <       0.02321014 Ry

     iteration # 30     ecut=    40.00 Ry     beta= 0.50
     Davidson diagonalization with overlap
     ethr =  4.07E-09,  avg # of iterations =  4.2

     total cpu time spent up to now is       20.8 secs

     total energy              =     -88.63166244 Ry
     Harris-Foulkes estimate   =     -88.62833294 Ry
     estimated scf accuracy    <       0.02681787 Ry

     iteration # 31     ecut=    40.00 Ry     beta= 0.50
     Davidson diagonalization with overlap
     ethr =  4.07E-09,  avg # of iterations =  5.4

     total cpu time spent up to now is       22.4 secs

     total energy              =     -88.62908589 Ry
     Harris-Foulkes estimate   =     -88.63201069 Ry
     estimated scf accuracy    <       0.04501753 Ry

     iteration # 32     ecut=    40.00 Ry     beta= 0.50
     Davidson diagonalization with overlap
     ethr =  4.07E-09,  avg # of iterations =  5.2

     total cpu time spent up to now is       24.0 secs

     total energy              =     -88.62633415 Ry
     Harris-Foulkes estimate   =     -88.62926511 Ry
     estimated scf accuracy    <       0.03146456 Ry

     iteration # 33     ecut=    40.00 Ry     beta= 0.50
     Davidson diagonalization with overlap
     ethr =  4.07E-09,  avg # of iterations =  5.3

     total cpu time spent up to now is       25.7 secs

     total energy              =     -88.62254156 Ry
     Harris-Foulkes estimate   =     -88.62660144 Ry
     estimated scf accuracy    <       0.01814053 Ry

     iteration # 34     ecut=    40.00 Ry     beta= 0.50
     Davidson diagonalization with overlap
     ethr =  4.07E-09,  avg # of iterations =  6.1

     total cpu time spent up to now is       27.8 secs

     total energy              =     -88.62361061 Ry
     Harris-Foulkes estimate   =     -88.62356689 Ry
     estimated scf accuracy    <       0.00247753 Ry

     iteration # 35     ecut=    40.00 Ry     beta= 0.50
     Davidson diagonalization with overlap
     ethr =  4.07E-09,  avg # of iterations =  2.7

     total cpu time spent up to now is       28.8 secs

     total energy              =     -88.62357236 Ry
     Harris-Foulkes estimate   =     -88.62361135 Ry
     estimated scf accuracy    <       0.00270876 Ry

     iteration # 36     ecut=    40.00 Ry     beta= 0.50
     Davidson diagonalization with overlap
     ethr =  4.07E-09,  avg # of iterations =  2.7

     total cpu time spent up to now is       29.8 secs

     total energy              =     -88.62265098 Ry
     Harris-Foulkes estimate   =     -88.62357292 Ry
     estimated scf accuracy    <       0.00250704 Ry

     iteration # 37     ecut=    40.00 Ry     beta= 0.50
     Davidson diagonalization with overlap
     ethr =  4.07E-09,  avg # of iterations =  5.4

     total cpu time spent up to now is       31.9 secs

     total energy              =     -88.62312091 Ry
     Harris-Foulkes estimate   =     -88.62312168 Ry
     estimated scf accuracy    <       0.00008134 Ry

     iteration # 38     ecut=    40.00 Ry     beta= 0.50
     Davidson diagonalization with overlap
     ethr =  4.07E-09,  avg # of iterations =  1.0

     total cpu time spent up to now is       32.6 secs

     total energy              =     -88.62313325 Ry
     Harris-Foulkes estimate   =     -88.62312093 Ry
     estimated scf accuracy    <       0.00007824 Ry

     iteration # 39     ecut=    40.00 Ry     beta= 0.50
     Davidson diagonalization with overlap
     ethr =  4.07E-09,  avg # of iterations =  3.5

     total cpu time spent up to now is       34.0 secs

     total energy              =     -88.62312625 Ry
     Harris-Foulkes estimate   =     -88.62313499 Ry
     estimated scf accuracy    <       0.00015542 Ry

     iteration # 40     ecut=    40.00 Ry     beta= 0.50
     Davidson diagonalization with overlap
     ethr =  4.07E-09,  avg # of iterations =  2.5

     total cpu time spent up to now is       35.1 secs

     total energy              =     -88.62313317 Ry
     Harris-Foulkes estimate   =     -88.62312678 Ry
     estimated scf accuracy    <       0.00011019 Ry

     iteration # 41     ecut=    40.00 Ry     beta= 0.50
     Davidson diagonalization with overlap
     c_bands:  3 eigenvalues not converged
     ethr =  4.07E-09,  avg # of iterations =  4.1

     total cpu time spent up to now is       36.6 secs

     total energy              =     -88.62895989 Ry
     Harris-Foulkes estimate   =     -88.62866962 Ry
     estimated scf accuracy    <       0.02656181 Ry

     iteration # 42     ecut=    40.00 Ry     beta= 0.50
     Davidson diagonalization with overlap
     c_bands:  1 eigenvalues not converged
     ethr =  4.07E-09,  avg # of iterations =  4.9

     total cpu time spent up to now is       38.6 secs

     total energy              =     -88.62574023 Ry
     Harris-Foulkes estimate   =     -88.63045006 Ry
     estimated scf accuracy    <       0.03736417 Ry

     iteration # 43     ecut=    40.00 Ry     beta= 0.50
     Davidson diagonalization with overlap
     ethr =  4.07E-09,  avg # of iterations =  5.8

     total cpu time spent up to now is       41.2 secs

     total energy              =     -88.62619798 Ry
     Harris-Foulkes estimate   =     -88.62633723 Ry
     estimated scf accuracy    <       0.01681259 Ry

     iteration # 44     ecut=    40.00 Ry     beta= 0.50
     Davidson diagonalization with overlap
     ethr =  4.07E-09,  avg # of iterations =  3.2

     total cpu time spent up to now is       42.8 secs

     total energy              =     -88.62599494 Ry
     Harris-Foulkes estimate   =     -88.62619914 Ry
     estimated scf accuracy    <       0.01610215 Ry

     iteration # 45     ecut=    40.00 Ry     beta= 0.50
     Davidson diagonalization with overlap
     ethr =  4.07E-09,  avg # of iterations =  3.4

     total cpu time spent up to now is       44.4 secs

     total energy              =     -88.62611822 Ry
     Harris-Foulkes estimate   =     -88.62599740 Ry
     estimated scf accuracy    <       0.01507718 Ry

     iteration # 46     ecut=    40.00 Ry     beta= 0.50
     Davidson diagonalization with overlap
     ethr =  4.07E-09,  avg # of iterations =  3.3

     total cpu time spent up to now is       46.0 secs

     total energy              =     -88.62588591 Ry
     Harris-Foulkes estimate   =     -88.62611917 Ry
     estimated scf accuracy    <       0.01569189 Ry

     iteration # 47     ecut=    40.00 Ry     beta= 0.50
     Davidson diagonalization with overlap
     ethr =  4.07E-09,  avg # of iterations =  3.5

     total cpu time spent up to now is       47.8 secs

     total energy              =     -88.62642849 Ry
     Harris-Foulkes estimate   =     -88.62588923 Ry
     estimated scf accuracy    <       0.01452628 Ry

     iteration # 48     ecut=    40.00 Ry     beta= 0.50
     Davidson diagonalization with overlap
     ethr =  4.07E-09,  avg # of iterations =  4.2

     total cpu time spent up to now is       50.0 secs

     total energy              =     -88.62585266 Ry
     Harris-Foulkes estimate   =     -88.62644683 Ry
     estimated scf accuracy    <       0.01735399 Ry

     iteration # 49     ecut=    40.00 Ry     beta= 0.50
     Davidson diagonalization with overlap
     ethr =  4.07E-09,  avg # of iterations =  4.2

     total cpu time spent up to now is       52.4 secs

     total energy              =     -88.62094493 Ry
     Harris-Foulkes estimate   =     -88.62587222 Ry
     estimated scf accuracy    <       0.01443980 Ry

     iteration # 50     ecut=    40.00 Ry     beta= 0.50
     Davidson diagonalization with overlap
     c_bands:  1 eigenvalues not converged
     ethr =  4.07E-09,  avg # of iterations =  7.4

     total cpu time spent up to now is       56.4 secs

     total energy              =     -88.62840341 Ry
     Harris-Foulkes estimate   =     -88.62831946 Ry
     estimated scf accuracy    <       0.02345033 Ry

     iteration # 51     ecut=    40.00 Ry     beta= 0.50
     Davidson diagonalization with overlap
     c_bands:  1 eigenvalues not converged
     ethr =  4.07E-09,  avg # of iterations =  4.8

     total cpu time spent up to now is       58.9 secs

     total energy              =     -88.62666338 Ry
     Harris-Foulkes estimate   =     -88.62975533 Ry
     estimated scf accuracy    <       0.03390337 Ry

     iteration # 52     ecut=    40.00 Ry     beta= 0.50
     Davidson diagonalization with overlap
     ethr =  4.07E-09,  avg # of iterations =  5.9

     total cpu time spent up to now is       62.4 secs

     total energy              =     -88.62499412 Ry
     Harris-Foulkes estimate   =     -88.62693907 Ry
     estimated scf accuracy    <       0.01985009 Ry

     iteration # 53     ecut=    40.00 Ry     beta= 0.50
     Davidson diagonalization with overlap
     ethr =  4.07E-09,  avg # of iterations =  5.2

     total cpu time spent up to now is       65.7 secs

     total energy              =     -88.62416298 Ry
     Harris-Foulkes estimate   =     -88.62518565 Ry
     estimated scf accuracy    <       0.01093226 Ry

     iteration # 54     ecut=    40.00 Ry     beta= 0.50
     Davidson diagonalization with overlap
     ethr =  4.07E-09,  avg # of iterations =  4.7

     total cpu time spent up to now is       68.9 secs

     total energy              =     -88.62352011 Ry
     Harris-Foulkes estimate   =     -88.62426136 Ry
     estimated scf accuracy    <       0.00614140 Ry

     iteration # 55     ecut=    40.00 Ry     beta= 0.50
     Davidson diagonalization with overlap
     ethr =  4.07E-09,  avg # of iterations =  4.8

     total cpu time spent up to now is       72.1 secs

     total energy              =     -88.62345392 Ry
     Harris-Foulkes estimate   =     -88.62361605 Ry
     estimated scf accuracy    <       0.00274021 Ry

     iteration # 56     ecut=    40.00 Ry     beta= 0.50
     Davidson diagonalization with overlap
     ethr =  4.07E-09,  avg # of iterations =  3.9

     total cpu time spent up to now is       74.8 secs

     total energy              =     -88.62357208 Ry
     Harris-Foulkes estimate   =     -88.62346399 Ry
     estimated scf accuracy    <       0.00192795 Ry

     iteration # 57     ecut=    40.00 Ry     beta= 0.50
     Davidson diagonalization with overlap
     ethr =  4.07E-09,  avg # of iterations =  3.6

     total cpu time spent up to now is       77.2 secs

     total energy              =     -88.62336846 Ry
     Harris-Foulkes estimate   =     -88.62357798 Ry
     estimated scf accuracy    <       0.00253635 Ry

     iteration # 58     ecut=    40.00 Ry     beta= 0.50
     Davidson diagonalization with overlap
     ethr =  4.07E-09,  avg # of iterations =  4.2

     total cpu time spent up to now is       80.2 secs

     total energy              =     -88.62288561 Ry
     Harris-Foulkes estimate   =     -88.62338684 Ry
     estimated scf accuracy    <       0.00151499 Ry

     iteration # 59     ecut=    40.00 Ry     beta= 0.50
     Davidson diagonalization with overlap
     ethr =  4.07E-09,  avg # of iterations =  5.2

     total cpu time spent up to now is       83.9 secs

     total energy              =     -88.62310709 Ry
     Harris-Foulkes estimate   =     -88.62310728 Ry
     estimated scf accuracy    <       0.00000151 Ry

     iteration # 60     ecut=    40.00 Ry     beta= 0.50
     Davidson diagonalization with overlap
     ethr =  4.07E-09,  avg # of iterations =  1.0

     total cpu time spent up to now is       85.1 secs

     End of self-consistent calculation

          k = 0.0000 0.0000 0.0000 (  1565 PWs)   bands (ev):

    -8.0500  -2.6004  -2.6003  -2.4806  -2.4805   2.7045   2.7060   2.9208
     2.9218   9.9857   9.9870   9.9908  12.0361  14.5330  14.6036  14.6038
    14.6319  14.6320  14.7245  14.7246

          k = 0.0000 0.0000-0.2500 (  1550 PWs)   bands (ev):

    -6.6579  -6.6579  -1.1795  -1.1795  -1.1780  -1.1780   3.9531   3.9531
     8.9599   8.9599   8.9623   8.9623  11.2304  11.2304  11.2339  11.2339
    14.0598  14.0599  15.2415  15.2415

          k = 0.0000-0.2500 0.0000 (  1550 PWs)   bands (ev):

    -6.6579  -6.6579  -1.1795  -1.1795  -1.1780  -1.1780   3.9531   3.9531
     8.9599   8.9599   8.9623   8.9623  11.2304  11.2304  11.2339  11.2339
    14.0598  14.0599  15.2415  15.2456

          k = 0.0000-0.2500-0.2500 (  1568 PWs)   bands (ev):

    -5.3284  -5.2717  -5.2716  -5.2138   5.0677   5.1194   5.1194   5.1697
     5.3051   5.3936   5.3936   5.4818  12.2749  12.3661  12.3661  12.4606
    14.2510  14.2913  14.2914  14.3420

          k = 0.2500 0.0000 0.0000 (  1541 PWs)   bands (ev):

    -6.6576  -1.2393  -1.2392  -1.1175  -1.1175   3.9410   4.0485   4.0596
     4.1782   4.1797   8.8918   8.8920   9.0363   9.0364  11.2283  11.2305
    12.6254  12.6269  14.0684  14.8039

          k = 0.2500 0.0000-0.2500 (  1568 PWs)   bands (ev):

    -5.2717  -5.2716   0.1733   0.1733   0.1749   0.1749   5.1156   5.1156
     5.3986   5.3986   9.5099   9.5099   9.5101   9.5101  10.8838  10.8839
    10.8849  10.8849  12.3616  12.3617

          k = 0.2500-0.2500 0.0000 (  1568 PWs)   bands (ev):

    -5.2717  -5.2717   0.1733   0.1733   0.1749   0.1749   5.1156   5.1156
     5.3986   5.3986   9.5099   9.5099   9.5101   9.5101  10.8838  10.8839
    10.8849  10.8849  12.3617  12.3617

          k = 0.2500-0.2500-0.2500 (  1556 PWs)   bands (ev):

    -3.9494  -3.8915  -3.8915  -3.8326   5.9464   6.0292   6.0292   6.1108
     6.7251   6.7897   6.8150   6.8150   6.8218   6.8219   6.8559   6.9047
    13.5738  13.5849  13.5850  13.5925

          k =-0.5000 0.0000 0.0000 (  1506 PWs)   bands (ev):

    -2.5405  -2.5405   2.6666   2.6667   2.7569   2.7570   2.8324   2.8326
     3.0013   3.0014   6.5903   6.5905   8.4620   8.4621   8.4633   8.4635
     8.4762   8.4764  14.6222  14.6225

          k =-0.5000 0.0000-0.2500 (  1532 PWs)   bands (ev):

    -1.1789  -1.1788  -1.1788  -1.1788   4.0435   4.0436   4.0436   4.0437
     4.1855   4.1855   4.1856   4.1856   8.9643   8.9643   8.9644   8.9644
    12.6176  12.6176  12.6177  12.6177

          k =-0.5000-0.2500 0.0000 (  1532 PWs)   bands (ev):

    -1.1788  -1.1788  -1.1788  -1.1788   4.0435   4.0435   4.0436   4.0437
     4.1855   4.1855   4.1856   4.1856   8.9643   8.9643   8.9644   8.9644
    12.6176  12.6176  12.6177  12.6178

          k =-0.5000-0.2500-0.2500 (  1568 PWs)   bands (ev):

     0.1122   0.1122   0.1567   0.1568   0.1914   0.1914   0.2371   0.2372
     9.4665   9.4666   9.5064   9.5064   9.5232   9.5233   9.5616   9.5616
    10.9452  10.9453  10.9746  10.9747

     the Fermi energy is    11.2274 ev

!    total energy              =     -88.62310650 Ry
     Harris-Foulkes estimate   =     -88.62310712 Ry
     estimated scf accuracy    <       0.00000078 Ry

     The total energy is the sum of the following terms:

     one-electron contribution =      38.25588613 Ry
     hartree contribution      =       2.69708355 Ry
     xc contribution           =     -25.84810862 Ry
     ewald contribution        =    -103.73034974 Ry
     smearing contrib. (-TS)   =       0.00238218 Ry

     convergence has been achieved in  60 iterations

     Forces acting on atoms (cartesian axes, Ry/au):

     atom    1 type  1   force =     0.00000045   -0.00000738    0.00001017
     atom    2 type  1   force =     0.00000011    0.00000797   -0.00001048
     atom    3 type  1   force =     0.00000060    0.00000738    0.00000945
     atom    4 type  1   force =    -0.00000096   -0.00000798   -0.00000944
     atom    5 type  1   force =    -0.00000059   -0.00000975    0.00001053
     atom    6 type  1   force =    -0.00000041    0.00001057   -0.00001321
     atom    7 type  1   force =     0.00000036   -0.00001076   -0.00000972
     atom    8 type  1   force =     0.00000044    0.00000994    0.00001270

     Total force =     0.000040     Total SCF correction =     0.000107
     SCF correction compared to forces is large: reduce conv_thr to get better values


     Computing stress (Cartesian axis) and pressure

          total   stress  (Ry/bohr**3)                   (kbar)     P=      -54.72
  -0.00051843   0.00000000   0.00000000          -76.26        0.00        0.00
   0.00000000  -0.00029874   0.00000169            0.00      -43.95        0.25
   0.00000000   0.00000169  -0.00029874            0.00        0.25      -43.95


     BFGS Geometry Optimization

     number of scf cycles    =   1
     number of bfgs steps    =   0

     enthalpy new            =     -88.6230818707 Ry

     new trust radius        =       0.0493426182 bohr
     new conv_thr            =       0.0000010000 Ry

     new unit-cell volume =    352.22722 a.u.^3 (    52.19469 Ang^3 )
     density =      3.05418 g/cm^3

CELL_PARAMETERS (bohr)
   4.432488984   0.000000491   0.000000464
   0.000000983   8.914308022   0.000379274
   0.000000927   0.000379274   8.914307489

ATOMIC_POSITIONS (crystal)
C             0.0000001013        0.4999991784        0.5000011319
C             0.0000000253        0.0000008868       -0.0000011668
C             0.0000001328        0.0000008222        0.5000010527
C            -0.0000002145        0.4999991115       -0.0000010508
C             0.4999998684        0.2499989148        0.2500011719
C             0.4999999077        0.7500011772        0.7499985293
C             0.5000000808        0.2499988019        0.7499989173
C             0.5000000981        0.7500011072        0.2500014145



     Writing output data file ./pp.save/
     NEW-OLD atomic charge density approx. for the potential
     extrapolated charge   31.08991, renormalised to   32.00000

     total cpu time spent up to now is       85.4 secs

     Self-consistent Calculation

     iteration #  1     ecut=    40.00 Ry     beta= 0.50
     Davidson diagonalization with overlap
     ethr =  1.00E-06,  avg # of iterations =  4.0

     total cpu time spent up to now is       88.8 secs

     total energy              =     -88.62460608 Ry
     Harris-Foulkes estimate   =     -87.80996194 Ry
     estimated scf accuracy    <       0.00097416 Ry

     iteration #  2     ecut=    40.00 Ry     beta= 0.50
     Davidson diagonalization with overlap
     ethr =  3.04E-06,  avg # of iterations =  2.2

     total cpu time spent up to now is       90.9 secs

     total energy              =     -88.62555603 Ry
     Harris-Foulkes estimate   =     -88.62557112 Ry
     estimated scf accuracy    <       0.00006671 Ry

     iteration #  3     ecut=    40.00 Ry     beta= 0.50
     Davidson diagonalization with overlap
     ethr =  2.08E-07,  avg # of iterations =  1.8

     total cpu time spent up to now is       92.5 secs

     total energy              =     -88.62556027 Ry
     Harris-Foulkes estimate   =     -88.62556326 Ry
     estimated scf accuracy    <       0.00001599 Ry

     iteration #  4     ecut=    40.00 Ry     beta= 0.50
     Davidson diagonalization with overlap
     ethr =  5.00E-08,  avg # of iterations =  2.1

     total cpu time spent up to now is       94.3 secs

     total energy              =     -88.62556057 Ry
     Harris-Foulkes estimate   =     -88.62556166 Ry
     estimated scf accuracy    <       0.00000346 Ry

     iteration #  5     ecut=    40.00 Ry     beta= 0.50
     Davidson diagonalization with overlap
     ethr =  1.08E-08,  avg # of iterations =  2.8

     total cpu time spent up to now is       96.6 secs

     total energy              =     -88.62556117 Ry
     Harris-Foulkes estimate   =     -88.62556148 Ry
     estimated scf accuracy    <       0.00000113 Ry

     iteration #  6     ecut=    40.00 Ry     beta= 0.50
     Davidson diagonalization with overlap
     c_bands:  3 eigenvalues not converged
     ethr =  3.53E-09,  avg # of iterations =  3.5

     total cpu time spent up to now is       99.1 secs

     total energy              =     -88.63075425 Ry
     Harris-Foulkes estimate   =     -88.63075161 Ry
     estimated scf accuracy    <       0.02382072 Ry

     iteration #  7     ecut=    40.00 Ry     beta= 0.50
     Davidson diagonalization with overlap
     ethr =  3.53E-09,  avg # of iterations =  2.5

     total cpu time spent up to now is      101.1 secs

     total energy              =     -88.63207751 Ry
     Harris-Foulkes estimate   =     -88.63207369 Ry
     estimated scf accuracy    <       0.03190050 Ry

     iteration #  8     ecut=    40.00 Ry     beta= 0.50
     Davidson diagonalization with overlap
     ethr =  3.53E-09,  avg # of iterations =  1.0

     total cpu time spent up to now is      102.5 secs

     total energy              =     -88.63210784 Ry
     Harris-Foulkes estimate   =     -88.63207752 Ry
     estimated scf accuracy    <       0.03191264 Ry

     iteration #  9     ecut=    40.00 Ry     beta= 0.50
     Davidson diagonalization with overlap
     ethr =  3.53E-09,  avg # of iterations =  1.2

     total cpu time spent up to now is      104.0 secs

     total energy              =     -88.63210625 Ry
     Harris-Foulkes estimate   =     -88.63210787 Ry
     estimated scf accuracy    <       0.03203647 Ry

     iteration # 10     ecut=    40.00 Ry     beta= 0.50
     Davidson diagonalization with overlap
     ethr =  3.53E-09,  avg # of iterations =  1.0

     total cpu time spent up to now is      105.4 secs

     total energy              =     -88.63215751 Ry
     Harris-Foulkes estimate   =     -88.63210626 Ry
     estimated scf accuracy    <       0.03203412 Ry

     iteration # 11     ecut=    40.00 Ry     beta= 0.50
     Davidson diagonalization with overlap
     ethr =  3.53E-09,  avg # of iterations =  1.9

     total cpu time spent up to now is      107.3 secs

     total energy              =     -88.63234711 Ry
     Harris-Foulkes estimate   =     -88.63215761 Ry
     estimated scf accuracy    <       0.03228551 Ry

     iteration # 12     ecut=    40.00 Ry     beta= 0.50
     Davidson diagonalization with overlap
     ethr =  3.53E-09,  avg # of iterations =  4.1

     total cpu time spent up to now is      110.5 secs

     total energy              =     -88.63223301 Ry
     Harris-Foulkes estimate   =     -88.63234843 Ry
     estimated scf accuracy    <       0.03320481 Ry

     iteration # 13     ecut=    40.00 Ry     beta= 0.50
     Davidson diagonalization with overlap
     ethr =  3.53E-09,  avg # of iterations =  2.5

     total cpu time spent up to now is      112.9 secs

     total energy              =     -88.63216204 Ry
     Harris-Foulkes estimate   =     -88.63223342 Ry
     estimated scf accuracy    <       0.03266374 Ry

     iteration # 14     ecut=    40.00 Ry     beta= 0.50
     Davidson diagonalization with overlap
     ethr =  3.53E-09,  avg # of iterations =  2.5

     total cpu time spent up to now is      115.1 secs

     total energy              =     -88.61445084 Ry
     Harris-Foulkes estimate   =     -88.63216220 Ry
     estimated scf accuracy    <       0.03233719 Ry

     iteration # 15     ecut=    40.00 Ry     beta= 0.50
     Davidson diagonalization with overlap
     c_bands:  3 eigenvalues not converged
     ethr =  3.53E-09,  avg # of iterations = 10.4

     total cpu time spent up to now is      124.0 secs

     total energy              =     -88.61738376 Ry
     Harris-Foulkes estimate   =     -88.65235476 Ry
     estimated scf accuracy    <       0.12857573 Ry

     iteration # 16     ecut=    40.00 Ry     beta= 0.50
     Davidson diagonalization with overlap
     c_bands:  4 eigenvalues not converged
     ethr =  3.53E-09,  avg # of iterations = 10.1

     total cpu time spent up to now is      132.5 secs

     total energy              =     -88.62533531 Ry
     Harris-Foulkes estimate   =     -88.62788973 Ry
     estimated scf accuracy    <       0.00983801 Ry

     iteration # 17     ecut=    40.00 Ry     beta= 0.50
     Davidson diagonalization with overlap
     c_bands:  3 eigenvalues not converged
     ethr =  3.53E-09,  avg # of iterations =  8.5

     total cpu time spent up to now is      140.0 secs

     total energy              =     -88.62937448 Ry
     Harris-Foulkes estimate   =     -88.63148214 Ry
     estimated scf accuracy    <       0.02907927 Ry

     iteration # 18     ecut=    40.00 Ry     beta= 0.50
     Davidson diagonalization with overlap
     ethr =  3.53E-09,  avg # of iterations =  7.2

     total cpu time spent up to now is      146.5 secs

     total energy              =     -88.62918916 Ry
     Harris-Foulkes estimate   =     -88.62953992 Ry
     estimated scf accuracy    <       0.01975305 Ry

     iteration # 19     ecut=    40.00 Ry     beta= 0.50
     Davidson diagonalization with overlap
     ethr =  3.53E-09,  avg # of iterations =  4.0

     total cpu time spent up to now is      150.5 secs

     total energy              =     -88.62885054 Ry
     Harris-Foulkes estimate   =     -88.62919503 Ry
     estimated scf accuracy    <       0.01808973 Ry

     iteration # 20     ecut=    40.00 Ry     beta= 0.50
     Davidson diagonalization with overlap
     ethr =  3.53E-09,  avg # of iterations =  4.0

     total cpu time spent up to now is      154.4 secs

     total energy              =     -88.62633881 Ry
     Harris-Foulkes estimate   =     -88.62885654 Ry
     estimated scf accuracy    <       0.01645506 Ry

     iteration # 21     ecut=    40.00 Ry     beta= 0.50
     Davidson diagonalization with overlap
     c_bands:  4 eigenvalues not converged
     ethr =  3.53E-09,  avg # of iterations =  7.2

     total cpu time spent up to now is      161.3 secs

     total energy              =     -88.62730285 Ry
     Harris-Foulkes estimate   =     -88.62787504 Ry
     estimated scf accuracy    <       0.01124374 Ry

     iteration # 22     ecut=    40.00 Ry     beta= 0.50
     Davidson diagonalization with overlap
     c_bands:  4 eigenvalues not converged
     ethr =  3.53E-09,  avg # of iterations =  7.5

     total cpu time spent up to now is      168.2 secs

     total energy              =     -88.62593300 Ry
     Harris-Foulkes estimate   =     -88.62742570 Ry
     estimated scf accuracy    <       0.00835402 Ry

     iteration # 23     ecut=    40.00 Ry     beta= 0.50
     Davidson diagonalization with overlap
     c_bands:  4 eigenvalues not converged
     ethr =  3.53E-09,  avg # of iterations =  7.2

     total cpu time spent up to now is      175.3 secs

     total energy              =     -88.62772816 Ry
     Harris-Foulkes estimate   =     -88.62890704 Ry
     estimated scf accuracy    <       0.01667526 Ry

     iteration # 24     ecut=    40.00 Ry     beta= 0.50
     Davidson diagonalization with overlap
     ethr =  3.53E-09,  avg # of iterations =  5.4

     total cpu time spent up to now is      181.1 secs

     total energy              =     -88.62730546 Ry
     Harris-Foulkes estimate   =     -88.62780756 Ry
     estimated scf accuracy    <       0.01132039 Ry

     iteration # 25     ecut=    40.00 Ry     beta= 0.50
     Davidson diagonalization with overlap
     ethr =  3.53E-09,  avg # of iterations =  4.3

     total cpu time spent up to now is      185.9 secs

     total energy              =     -88.62710491 Ry
     Harris-Foulkes estimate   =     -88.62732644 Ry
     estimated scf accuracy    <       0.00894454 Ry

     iteration # 26     ecut=    40.00 Ry     beta= 0.50
     Davidson diagonalization with overlap
     c_bands:  4 eigenvalues not converged
     ethr =  3.53E-09,  avg # of iterations =  5.5

     total cpu time spent up to now is      191.4 secs

     total energy              =     -88.62726705 Ry
     Harris-Foulkes estimate   =     -88.62734133 Ry
     estimated scf accuracy    <       0.00779398 Ry

     iteration # 27     ecut=    40.00 Ry     beta= 0.50
     Davidson diagonalization with overlap
     ethr =  3.53E-09,  avg # of iterations =  5.8

     total cpu time spent up to now is      197.7 secs

     total energy              =     -88.62742217 Ry
     Harris-Foulkes estimate   =     -88.62808963 Ry
     estimated scf accuracy    <       0.01268725 Ry

     iteration # 28     ecut=    40.00 Ry     beta= 0.50
     Davidson diagonalization with overlap
     ethr =  3.53E-09,  avg # of iterations =  5.2

     total cpu time spent up to now is      203.5 secs

     total energy              =     -88.62670217 Ry
     Harris-Foulkes estimate   =     -88.62745643 Ry
     estimated scf accuracy    <       0.00957655 Ry

     iteration # 29     ecut=    40.00 Ry     beta= 0.50
     Davidson diagonalization with overlap
     ethr =  3.53E-09,  avg # of iterations =  4.8

     total cpu time spent up to now is      209.2 secs

     total energy              =     -88.62584523 Ry
     Harris-Foulkes estimate   =     -88.62675974 Ry
     estimated scf accuracy    <       0.00611013 Ry

     iteration # 30     ecut=    40.00 Ry     beta= 0.50
     Davidson diagonalization with overlap
     ethr =  3.53E-09,  avg # of iterations =  6.0

     total cpu time spent up to now is      216.0 secs

     total energy              =     -88.62870356 Ry
     Harris-Foulkes estimate   =     -88.62925012 Ry
     estimated scf accuracy    <       0.01834800 Ry

     iteration # 31     ecut=    40.00 Ry     beta= 0.50
     Davidson diagonalization with overlap
     ethr =  3.53E-09,  avg # of iterations =  4.3

     total cpu time spent up to now is      221.1 secs

     total energy              =     -88.62846266 Ry
     Harris-Foulkes estimate   =     -88.62871829 Ry
     estimated scf accuracy    <       0.01577292 Ry

     iteration # 32     ecut=    40.00 Ry     beta= 0.50
     Davidson diagonalization with overlap
     ethr =  3.53E-09,  avg # of iterations =  3.6

     total cpu time spent up to now is      225.4 secs

     total energy              =     -88.62788203 Ry
     Harris-Foulkes estimate   =     -88.62846642 Ry
     estimated scf accuracy    <       0.01454386 Ry

     iteration # 33     ecut=    40.00 Ry     beta= 0.50
     Davidson diagonalization with overlap
     ethr =  3.53E-09,  avg # of iterations =  4.4

     total cpu time spent up to now is      230.8 secs

     total energy              =     -88.62762765 Ry
     Harris-Foulkes estimate   =     -88.62790369 Ry
     estimated scf accuracy    <       0.01178883 Ry

     iteration # 34     ecut=    40.00 Ry     beta= 0.50
     Davidson diagonalization with overlap
     ethr =  3.53E-09,  avg # of iterations =  3.8

     total cpu time spent up to now is      235.3 secs

     total energy              =     -88.62679833 Ry
     Harris-Foulkes estimate   =     -88.62763361 Ry
     estimated scf accuracy    <       0.01045804 Ry

     iteration # 35     ecut=    40.00 Ry     beta= 0.50
     Davidson diagonalization with overlap
     ethr =  3.53E-09,  avg # of iterations =  4.8

     total cpu time spent up to now is      241.4 secs

     total energy              =     -88.62790628 Ry
     Harris-Foulkes estimate   =     -88.62686277 Ry
     estimated scf accuracy    <       0.00663121 Ry

     iteration # 36     ecut=    40.00 Ry     beta= 0.50
     Davidson diagonalization with overlap
     ethr =  3.53E-09,  avg # of iterations =  5.3

     total cpu time spent up to now is      248.1 secs

     total energy              =     -88.62808675 Ry
     Harris-Foulkes estimate   =     -88.62804324 Ry
     estimated scf accuracy    <       0.01246959 Ry

     iteration # 37     ecut=    40.00 Ry     beta= 0.50
     Davidson diagonalization with overlap
     ethr =  3.53E-09,  avg # of iterations =  2.2

     total cpu time spent up to now is      251.2 secs

     total energy              =     -88.62811694 Ry
     Harris-Foulkes estimate   =     -88.62808689 Ry
     estimated scf accuracy    <       0.01267841 Ry

     iteration # 38     ecut=    40.00 Ry     beta= 0.50
     Davidson diagonalization with overlap
     ethr =  3.53E-09,  avg # of iterations =  1.6

     total cpu time spent up to now is      253.9 secs

     total energy              =     -88.62384124 Ry
     Harris-Foulkes estimate   =     -88.62811701 Ry
     estimated scf accuracy    <       0.01281287 Ry

     iteration # 39     ecut=    40.00 Ry     beta= 0.50
     Davidson diagonalization with overlap
     c_bands:  2 eigenvalues not converged
     ethr =  3.53E-09,  avg # of iterations =  7.6

     total cpu time spent up to now is      263.3 secs

     total energy              =     -88.63028371 Ry
     Harris-Foulkes estimate   =     -88.63057924 Ry
     estimated scf accuracy    <       0.02286232 Ry

     iteration # 40     ecut=    40.00 Ry     beta= 0.50
     Davidson diagonalization with overlap
     ethr =  3.53E-09,  avg # of iterations =  5.0

     total cpu time spent up to now is      269.3 secs

     total energy              =     -88.62759626 Ry
     Harris-Foulkes estimate   =     -88.63159658 Ry
     estimated scf accuracy    <       0.02962128 Ry

     iteration # 41     ecut=    40.00 Ry     beta= 0.50
     Davidson diagonalization with overlap
     ethr =  3.53E-09,  avg # of iterations =  5.5

     total cpu time spent up to now is      277.0 secs

     total energy              =     -88.62714270 Ry
     Harris-Foulkes estimate   =     -88.62811548 Ry
     estimated scf accuracy    <       0.01283204 Ry

     iteration # 42     ecut=    40.00 Ry     beta= 0.50
     Davidson diagonalization with overlap
     ethr =  3.53E-09,  avg # of iterations =  4.7

     total cpu time spent up to now is      283.6 secs

     total energy              =     -88.62692379 Ry
     Harris-Foulkes estimate   =     -88.62721315 Ry
     estimated scf accuracy    <       0.00837652 Ry

     iteration # 43     ecut=    40.00 Ry     beta= 0.50
     Davidson diagonalization with overlap
     ethr =  3.53E-09,  avg # of iterations =  3.9

     total cpu time spent up to now is      288.9 secs

     total energy              =     -88.62686182 Ry
     Harris-Foulkes estimate   =     -88.62693320 Ry
     estimated scf accuracy    <       0.00698063 Ry

     iteration # 44     ecut=    40.00 Ry     beta= 0.50
     Davidson diagonalization with overlap
     ethr =  3.53E-09,  avg # of iterations =  3.1

     total cpu time spent up to now is      293.2 secs

     total energy              =     -88.62678608 Ry
     Harris-Foulkes estimate   =     -88.62686250 Ry
     estimated scf accuracy    <       0.00662815 Ry

     iteration # 45     ecut=    40.00 Ry     beta= 0.50
     Davidson diagonalization with overlap
     ethr =  3.53E-09,  avg # of iterations =  3.3

     total cpu time spent up to now is      297.8 secs

     total energy              =     -88.62662446 Ry
     Harris-Foulkes estimate   =     -88.62678691 Ry
     estimated scf accuracy    <       0.00624922 Ry

     iteration # 46     ecut=    40.00 Ry     beta= 0.50
     Davidson diagonalization with overlap
     ethr =  3.53E-09,  avg # of iterations =  3.6

     total cpu time spent up to now is      302.7 secs

     total energy              =     -88.62587066 Ry
     Harris-Foulkes estimate   =     -88.62662843 Ry
     estimated scf accuracy    <       0.00545422 Ry

     iteration # 47     ecut=    40.00 Ry     beta= 0.50
     Davidson diagonalization with overlap
     ethr =  3.53E-09,  avg # of iterations =  4.9

     total cpu time spent up to now is      309.9 secs

     total energy              =     -88.62519943 Ry
     Harris-Foulkes estimate   =     -88.62597946 Ry
     estimated scf accuracy    <       0.00216483 Ry

     iteration # 48     ecut=    40.00 Ry     beta= 0.50
     Davidson diagonalization with overlap
     ethr =  3.53E-09,  avg # of iterations =  5.5

     total cpu time spent up to now is      318.0 secs

     total energy              =     -88.62555824 Ry
     Harris-Foulkes estimate   =     -88.62556545 Ry
     estimated scf accuracy    <       0.00002138 Ry

     iteration # 49     ecut=    40.00 Ry     beta= 0.50
     Davidson diagonalization with overlap
     c_bands:  2 eigenvalues not converged
     ethr =  3.53E-09,  avg # of iterations =  5.1

     total cpu time spent up to now is      324.5 secs

     total energy              =     -88.63039039 Ry
     Harris-Foulkes estimate   =     -88.63204515 Ry
     estimated scf accuracy    <       0.03159142 Ry

     iteration # 50     ecut=    40.00 Ry     beta= 0.50
     Davidson diagonalization with overlap
     ethr =  3.53E-09,  avg # of iterations =  5.7

     total cpu time spent up to now is      332.3 secs

     total energy              =     -88.62855914 Ry
     Harris-Foulkes estimate   =     -88.63049878 Ry
     estimated scf accuracy    <       0.02437331 Ry

     iteration # 51     ecut=    40.00 Ry     beta= 0.50
     Davidson diagonalization with overlap
     ethr =  3.53E-09,  avg # of iterations =  5.0

     total cpu time spent up to now is      340.0 secs

     total energy              =     -88.62822718 Ry
     Harris-Foulkes estimate   =     -88.62870219 Ry
     estimated scf accuracy    <       0.01569578 Ry

     iteration # 52     ecut=    40.00 Ry     beta= 0.50
     Davidson diagonalization with overlap
     ethr =  3.53E-09,  avg # of iterations =  4.2

     total cpu time spent up to now is      346.2 secs

     total energy              =     -88.62818678 Ry
     Harris-Foulkes estimate   =     -88.62824032 Ry
     estimated scf accuracy    <       0.01343785 Ry

     iteration # 53     ecut=    40.00 Ry     beta= 0.50
     Davidson diagonalization with overlap
     ethr =  3.53E-09,  avg # of iterations =  2.4

     total cpu time spent up to now is      350.0 secs

     total energy              =     -88.62812934 Ry
     Harris-Foulkes estimate   =     -88.62818697 Ry
     estimated scf accuracy    <       0.01318137 Ry

     iteration # 54     ecut=    40.00 Ry     beta= 0.50
     Davidson diagonalization with overlap
     ethr =  3.53E-09,  avg # of iterations =  2.5

     total cpu time spent up to now is      354.1 secs

     total energy              =     -88.62794588 Ry
     Harris-Foulkes estimate   =     -88.62812957 Ry
     estimated scf accuracy    <       0.01289690 Ry

     iteration # 55     ecut=    40.00 Ry     beta= 0.50
     Davidson diagonalization with overlap
     ethr =  3.53E-09,  avg # of iterations =  3.4

     total cpu time spent up to now is      359.3 secs

     total energy              =     -88.62770931 Ry
     Harris-Foulkes estimate   =     -88.62794827 Ry
     estimated scf accuracy    <       0.01200654 Ry

     iteration # 56     ecut=    40.00 Ry     beta= 0.50
     Davidson diagonalization with overlap
     ethr =  3.53E-09,  avg # of iterations =  3.7

     total cpu time spent up to now is      364.9 secs

     total energy              =     -88.62738518 Ry
     Harris-Foulkes estimate   =     -88.62771366 Ry
     estimated scf accuracy    <       0.01085202 Ry

     iteration # 57     ecut=    40.00 Ry     beta= 0.50
     Davidson diagonalization with overlap
     ethr =  3.53E-09,  avg # of iterations =  4.0

     total cpu time spent up to now is      370.9 secs

     total energy              =     -88.62407120 Ry
     Harris-Foulkes estimate   =     -88.62739458 Ry
     estimated scf accuracy    <       0.00927250 Ry

     iteration # 58     ecut=    40.00 Ry     beta= 0.50
     Davidson diagonalization with overlap
     ethr =  3.53E-09,  avg # of iterations =  6.3

     total cpu time spent up to now is      380.9 secs

     total energy              =     -88.62556647 Ry
     Harris-Foulkes estimate   =     -88.62556945 Ry
     estimated scf accuracy    <       0.00004272 Ry

     iteration # 59     ecut=    40.00 Ry     beta= 0.50
     Davidson diagonalization with overlap
     c_bands:  2 eigenvalues not converged
     ethr =  3.53E-09,  avg # of iterations =  4.4

     total cpu time spent up to now is      387.1 secs

     total energy              =     -88.62787607 Ry
     Harris-Foulkes estimate   =     -88.63242502 Ry
     estimated scf accuracy    <       0.03358516 Ry

     iteration # 60     ecut=    40.00 Ry     beta= 0.50
     Davidson diagonalization with overlap
     ethr =  3.53E-09,  avg # of iterations =  6.2

     total cpu time spent up to now is      397.0 secs

     total energy              =     -88.62720682 Ry
     Harris-Foulkes estimate   =     -88.62846697 Ry
     estimated scf accuracy    <       0.01455488 Ry

     iteration # 61     ecut=    40.00 Ry     beta= 0.50
     Davidson diagonalization with overlap
     ethr =  3.53E-09,  avg # of iterations =  5.3

     total cpu time spent up to now is      405.4 secs

     total energy              =     -88.62703328 Ry
     Harris-Foulkes estimate   =     -88.62731143 Ry
     estimated scf accuracy    <       0.00886596 Ry

     iteration # 62     ecut=    40.00 Ry     beta= 0.50
     Davidson diagonalization with overlap
     ethr =  3.53E-09,  avg # of iterations =  3.8

     total cpu time spent up to now is      411.5 secs

     total energy              =     -88.62677107 Ry
     Harris-Foulkes estimate   =     -88.62704149 Ry
     estimated scf accuracy    <       0.00752144 Ry

     iteration # 63     ecut=    40.00 Ry     beta= 0.50
     Davidson diagonalization with overlap
     ethr =  3.53E-09,  avg # of iterations =  4.0

     total cpu time spent up to now is      417.8 secs

     total energy              =     -88.62678562 Ry
     Harris-Foulkes estimate   =     -88.62678025 Ry
     estimated scf accuracy    <       0.00621603 Ry

     iteration # 64     ecut=    40.00 Ry     beta= 0.50
     Davidson diagonalization with overlap
     ethr =  3.53E-09,  avg # of iterations =  1.0

     total cpu time spent up to now is      420.7 secs

     total energy              =     -88.62682411 Ry
     Harris-Foulkes estimate   =     -88.62678562 Ry
     estimated scf accuracy    <       0.00623737 Ry

     iteration # 65     ecut=    40.00 Ry     beta= 0.50
     Davidson diagonalization with overlap
     ethr =  3.53E-09,  avg # of iterations =  2.3

     total cpu time spent up to now is      425.1 secs

     total energy              =     -88.62530687 Ry
     Harris-Foulkes estimate   =     -88.62682434 Ry
     estimated scf accuracy    <       0.00643495 Ry

     iteration # 66     ecut=    40.00 Ry     beta= 0.50
     Davidson diagonalization with overlap
     ethr =  3.53E-09,  avg # of iterations =  5.5

     total cpu time spent up to now is      434.5 secs

     total energy              =     -88.62555224 Ry
     Harris-Foulkes estimate   =     -88.62570736 Ry
     estimated scf accuracy    <       0.00076288 Ry

     iteration # 67     ecut=    40.00 Ry     beta= 0.50
     Davidson diagonalization with overlap
     ethr =  3.53E-09,  avg # of iterations =  4.4

     total cpu time spent up to now is      442.0 secs

     total energy              =     -88.62553506 Ry
     Harris-Foulkes estimate   =     -88.62558807 Ry
     estimated scf accuracy    <       0.00013997 Ry

     iteration # 68     ecut=    40.00 Ry     beta= 0.50
     Davidson diagonalization with overlap
     ethr =  3.53E-09,  avg # of iterations =  4.4

     total cpu time spent up to now is      449.4 secs

     total energy              =     -88.62556244 Ry
     Harris-Foulkes estimate   =     -88.62556228 Ry
     estimated scf accuracy    <       0.00000489 Ry

     iteration # 69     ecut=    40.00 Ry     beta= 0.50
     Davidson diagonalization with overlap
     ethr =  3.53E-09,  avg # of iterations =  1.2

     total cpu time spent up to now is      452.6 secs

     total energy              =     -88.62556250 Ry
     Harris-Foulkes estimate   =     -88.62556246 Ry
     estimated scf accuracy    <       0.00000565 Ry

     iteration # 70     ecut=    40.00 Ry     beta= 0.50
     Davidson diagonalization with overlap
     c_bands:  1 eigenvalues not converged
     ethr =  3.53E-09,  avg # of iterations =  2.6

     total cpu time spent up to now is      457.1 secs

     total energy              =     -88.62934570 Ry
     Harris-Foulkes estimate   =     -88.63223067 Ry
     estimated scf accuracy    <       0.03264329 Ry

     iteration # 71     ecut=    40.00 Ry     beta= 0.50
     Davidson diagonalization with overlap
     ethr =  3.53E-09,  avg # of iterations =  5.4

     total cpu time spent up to now is      466.4 secs

     total energy              =     -88.62820157 Ry
     Harris-Foulkes estimate   =     -88.62958043 Ry
     estimated scf accuracy    <       0.01995656 Ry

     iteration # 72     ecut=    40.00 Ry     beta= 0.50
     Davidson diagonalization with overlap
     ethr =  3.53E-09,  avg # of iterations =  4.7

     total cpu time spent up to now is      475.1 secs

     total energy              =     -88.62800674 Ry
     Harris-Foulkes estimate   =     -88.62829016 Ry
     estimated scf accuracy    <       0.01368428 Ry

     iteration # 73     ecut=    40.00 Ry     beta= 0.50
     Davidson diagonalization with overlap
     ethr =  3.53E-09,  avg # of iterations =  3.8

     total cpu time spent up to now is      481.8 secs

     total energy              =     -88.62770055 Ry
     Harris-Foulkes estimate   =     -88.62801211 Ry
     estimated scf accuracy    <       0.01231942 Ry

     iteration # 74     ecut=    40.00 Ry     beta= 0.50
     Davidson diagonalization with overlap
     ethr =  3.53E-09,  avg # of iterations =  3.9

     total cpu time spent up to now is      488.6 secs

     total energy              =     -88.62547936 Ry
     Harris-Foulkes estimate   =     -88.62770777 Ry
     estimated scf accuracy    <       0.01082278 Ry

     iteration # 75     ecut=    40.00 Ry     beta= 0.50
     Davidson diagonalization with overlap
     ethr =  3.53E-09,  avg # of iterations =  5.5

     total cpu time spent up to now is      498.8 secs

     total energy              =     -88.62788914 Ry
     Harris-Foulkes estimate   =     -88.62597044 Ry
     estimated scf accuracy    <       0.00211963 Ry

     iteration # 76     ecut=    40.00 Ry     beta= 0.50
     Davidson diagonalization with overlap
     ethr =  3.53E-09,  avg # of iterations =  6.4

     total cpu time spent up to now is      510.3 secs

     total energy              =     -88.62007168 Ry
     Harris-Foulkes estimate   =     -88.62893941 Ry
     estimated scf accuracy    <       0.01683433 Ry

     iteration # 77     ecut=    40.00 Ry     beta= 0.50
     Davidson diagonalization with overlap
     c_bands:  4 eigenvalues not converged
     ethr =  3.53E-09,  avg # of iterations =  9.2

     total cpu time spent up to now is      525.4 secs

     total energy              =     -88.62617211 Ry
     Harris-Foulkes estimate   =     -88.64018774 Ry
     estimated scf accuracy    <       0.07039868 Ry

     iteration # 78     ecut=    40.00 Ry     beta= 0.50
     Davidson diagonalization with overlap
     ethr =  3.53E-09,  avg # of iterations =  6.4

     total cpu time spent up to now is      537.4 secs

     total energy              =     -88.62817311 Ry
     Harris-Foulkes estimate   =     -88.62894677 Ry
     estimated scf accuracy    <       0.01689641 Ry

     iteration # 79     ecut=    40.00 Ry     beta= 0.50
     Davidson diagonalization with overlap
     ethr =  3.53E-09,  avg # of iterations =  4.4

     total cpu time spent up to now is      545.9 secs

     total energy              =     -88.62768957 Ry
     Harris-Foulkes estimate   =     -88.62820601 Ry
     estimated scf accuracy    <       0.01327164 Ry

     iteration # 80     ecut=    40.00 Ry     beta= 0.50
     Davidson diagonalization with overlap
     ethr =  3.53E-09,  avg # of iterations =  4.2

     total cpu time spent up to now is      553.7 secs

     total energy              =     -88.62735954 Ry
     Harris-Foulkes estimate   =     -88.62770816 Ry
     estimated scf accuracy    <       0.01082550 Ry

     iteration # 81     ecut=    40.00 Ry     beta= 0.50
     Davidson diagonalization with overlap
     ethr =  3.53E-09,  avg # of iterations =  4.0

     total cpu time spent up to now is      561.2 secs

     total energy              =     -88.62693804 Ry
     Harris-Foulkes estimate   =     -88.62736996 Ry
     estimated scf accuracy    <       0.00915359 Ry

     iteration # 82     ecut=    40.00 Ry     beta= 0.50
     Davidson diagonalization with overlap
     ethr =  3.53E-09,  avg # of iterations =  4.2

     total cpu time spent up to now is      569.2 secs

     total energy              =     -88.62692614 Ry
     Harris-Foulkes estimate   =     -88.62695728 Ry
     estimated scf accuracy    <       0.00710203 Ry

     iteration # 83     ecut=    40.00 Ry     beta= 0.50
     Davidson diagonalization with overlap
     ethr =  3.53E-09,  avg # of iterations =  2.1

     total cpu time spent up to now is      573.6 secs

     total energy              =     -88.62622593 Ry
     Harris-Foulkes estimate   =     -88.62692626 Ry
     estimated scf accuracy    <       0.00695307 Ry

     iteration # 84     ecut=    40.00 Ry     beta= 0.50
     Davidson diagonalization with overlap
     ethr =  3.53E-09,  avg # of iterations =  4.6

     total cpu time spent up to now is      582.9 secs

     total energy              =     -88.62631000 Ry
     Harris-Foulkes estimate   =     -88.62629639 Ry
     estimated scf accuracy    <       0.00377966 Ry

     iteration # 85     ecut=    40.00 Ry     beta= 0.50
     Davidson diagonalization with overlap
     ethr =  3.53E-09,  avg # of iterations =  1.1

     total cpu time spent up to now is      586.3 secs

     total energy              =     -88.62496649 Ry
     Harris-Foulkes estimate   =     -88.62631004 Ry
     estimated scf accuracy    <       0.00383516 Ry

     iteration # 86     ecut=    40.00 Ry     beta= 0.50
     Davidson diagonalization with overlap
     ethr =  3.53E-09,  avg # of iterations =  5.4

     total cpu time spent up to now is      597.5 secs

     total energy              =     -88.62556202 Ry
     Harris-Foulkes estimate   =     -88.62556300 Ry
     estimated scf accuracy    <       0.00000862 Ry

     iteration # 87     ecut=    40.00 Ry     beta= 0.50
     Davidson diagonalization with overlap
     ethr =  3.53E-09,  avg # of iterations =  1.6

     total cpu time spent up to now is      601.6 secs

     total energy              =     -88.62556192 Ry
     Harris-Foulkes estimate   =     -88.62556212 Ry
     estimated scf accuracy    <       0.00000453 Ry

     iteration # 88     ecut=    40.00 Ry     beta= 0.50
     Davidson diagonalization with overlap
     ethr =  3.53E-09,  avg # of iterations =  1.0

     total cpu time spent up to now is      605.1 secs

     total energy              =     -88.62556122 Ry
     Harris-Foulkes estimate   =     -88.62556195 Ry
     estimated scf accuracy    <       0.00000366 Ry

     iteration # 89     ecut=    40.00 Ry     beta= 0.50
     Davidson diagonalization with overlap
     ethr =  3.53E-09,  avg # of iterations =  2.5

     total cpu time spent up to now is      610.2 secs

     End of self-consistent calculation

          k = 0.0000 0.0000 0.0000 (  1565 PWs)   bands (ev):

    -7.9520  -2.4207  -2.4207  -2.2954  -2.2954   2.8893   2.8900   3.2865
     3.2882  10.3365  10.3365  10.5215  12.8407  15.0798  15.0798  15.1103
    15.1103  15.1467  15.1468  15.3480

          k = 0.0000 0.0000-0.2519 (  1550 PWs)   bands (ev):

    -6.5393  -6.5392  -0.9751  -0.9751  -0.9744  -0.9743   4.2473   4.2473
     9.3572   9.3573   9.3573   9.3573  11.6113  11.6114  11.7871  11.7872
    14.8223  14.8224  15.8741  15.8741

          k = 0.0000-0.2519 0.0000 (  1550 PWs)   bands (ev):

    -6.5392  -6.5392  -0.9751  -0.9751  -0.9744  -0.9743   4.2473   4.2473
     9.3572   9.3573   9.3573   9.3573  11.6113  11.6114  11.7871  11.7872
    14.8223  14.8224  15.8741  15.8741

          k = 0.0000-0.2519-0.2519 (  1568 PWs)   bands (ev):

    -5.1915  -5.1318  -5.1317  -5.0718   5.4606   5.5106   5.5107   5.5383
     5.5639   5.6311   5.6312   5.7240  12.8444  12.9409  12.9410  13.0399
    14.7774  14.8219  14.8219  14.8705

          k = 0.2533-0.0000-0.0000 (  1541 PWs)   bands (ev):

    -6.5230  -1.0232  -1.0231  -0.8961  -0.8961   4.3670   4.4074   4.4081
     4.4496   4.4652   9.4004   9.4005   9.5535   9.5535  11.6222  11.6233
    13.1668  13.1672  14.7380  15.3772

          k = 0.2533 0.0000-0.2519 (  1568 PWs)   bands (ev):

    -5.1164  -5.1163   0.4164   0.4164   0.4172   0.4172   5.5697   5.5697
     5.7156   5.7157  10.0374  10.0375  10.0382  10.0382  11.2879  11.2879
    11.2898  11.2899  12.7852  12.7853

          k = 0.2533-0.2519 0.0000 (  1568 PWs)   bands (ev):

    -5.1164  -5.1164   0.4164   0.4164   0.4172   0.4172   5.5697   5.5697
     5.7156   5.7157  10.0374  10.0375  10.0382  10.0382  11.2879  11.2879
    11.2898  11.2899  12.7852  12.7853

          k = 0.2533-0.2519-0.2519 (  1556 PWs)   bands (ev):

    -3.7756  -3.7147  -3.7146  -3.6535   6.4785   6.5587   6.5588   6.6392
     7.0029   7.0970   7.0971   7.1166   7.1553   7.1553   7.1915   7.1981
    14.1829  14.1941  14.1941  14.2017

          k =-0.5066 0.0000 0.0000 (  1506 PWs)   bands (ev):

    -2.2955  -2.2955   2.8799   2.8800   2.9765   2.9765   3.2802   3.2803
     3.4562   3.4562   7.1899   7.1899   8.7723   8.7723   8.8237   8.8237
     8.8242   8.8242  15.1377  15.1379

          k =-0.5066 0.0000-0.2519 (  1532 PWs)   bands (ev):

    -0.9135  -0.9135  -0.9134  -0.9134   4.4293   4.4293   4.4294   4.4294
     4.5144   4.5144   4.5145   4.5145   9.4080   9.4080   9.4081   9.4081
    13.1291  13.1291  13.1292  13.1292

          k =-0.5066-0.2519 0.0000 (  1532 PWs)   bands (ev):

    -0.9135  -0.9135  -0.9134  -0.9134   4.4293   4.4293   4.4294   4.4294
     4.5144   4.5144   4.5144   4.5145   9.4080   9.4080   9.4081   9.4081
    13.1291  13.1291  13.1292  13.1292

          k =-0.5066-0.2519-0.2519 (  1568 PWs)   bands (ev):

     0.3979   0.3979   0.4476   0.4477   0.4778   0.4779   0.5279   0.5279
     9.9586   9.9586  10.0019  10.0020  10.0151  10.0151  10.0607  10.0607
    11.3610  11.3611  11.3933  11.3934

     the Fermi energy is    11.6547 ev

!    total energy              =     -88.62556098 Ry
     Harris-Foulkes estimate   =     -88.62556142 Ry
     estimated scf accuracy    <       0.00000056 Ry

     The total energy is the sum of the following terms:

     one-electron contribution =      39.49700021 Ry
     hartree contribution      =       2.57788717 Ry
     xc contribution           =     -25.99942357 Ry
     ewald contribution        =    -104.70449523 Ry
     smearing contrib. (-TS)   =       0.00347044 Ry

     convergence has been achieved in  89 iterations

     Forces acting on atoms (cartesian axes, Ry/au):

     atom    1 type  1   force =     0.00000116   -0.00001076    0.00000951
     atom    2 type  1   force =     0.00000088    0.00000918   -0.00001252
     atom    3 type  1   force =     0.00000054    0.00000647    0.00001265
     atom    4 type  1   force =     0.00000003   -0.00000548   -0.00000987
     atom    5 type  1   force =    -0.00000131    0.00000161    0.00001014
     atom    6 type  1   force =    -0.00000113   -0.00000105   -0.00001241
     atom    7 type  1   force =    -0.00000008   -0.00000208   -0.00000553
     atom    8 type  1   force =    -0.00000009    0.00000210    0.00000802

     Total force =     0.000034     Total SCF correction =     0.000056
     SCF correction compared to forces is large: reduce conv_thr to get better values


     Computing stress (Cartesian axis) and pressure

          total   stress  (Ry/bohr**3)                   (kbar)     P=        4.58
  -0.00048224  -0.00000002  -0.00000002          -70.94       -0.00       -0.00
  -0.00000002   0.00028787  -0.00000069           -0.00       42.35       -0.10
  -0.00000002  -0.00000069   0.00028786           -0.00       -0.10       42.35


     number of scf cycles    =   2
     number of bfgs steps    =   1

     enthalpy old            =     -88.6230818707 Ry
     enthalpy new            =     -88.6255370349 Ry

     CASE: enthalpy_new < enthalpy_old

     new trust radius        =       0.1146324714 bohr
     new conv_thr            =       0.0000000100 Ry

     new unit-cell volume =    341.09177 a.u.^3 (    50.54458 Ang^3 )
     density =      3.15388 g/cm^3

CELL_PARAMETERS (bohr)
   4.297121650  -0.000001690  -0.000001585
  -0.000003327   8.909368422   0.000653473
  -0.000003120   0.000653473   8.909363349

ATOMIC_POSITIONS (crystal)
C             0.0000005324        0.4999967400        0.5000037813
C             0.0000002912        0.0000031939       -0.0000042605
C             0.0000004369        0.0000026879        0.5000040255
C            -0.0000004665        0.4999972972       -0.0000036485
C             0.4999993605        0.2499978113        0.2500039535
C             0.4999994939        0.7500024681        0.7499950801
C             0.5000001587        0.2499970667        0.7499968611
C             0.5000001929        0.7500027349        0.2500042075



     Writing output data file ./pp.save/
     NEW-OLD atomic charge density approx. for the potential
     extrapolated charge   30.95532, renormalised to   32.00000

     total cpu time spent up to now is      610.4 secs

     Self-consistent Calculation

     iteration #  1     ecut=    40.00 Ry     beta= 0.50
     Davidson diagonalization with overlap
     ethr =  1.00E-06,  avg # of iterations =  5.2

     total cpu time spent up to now is      621.0 secs

     total energy              =     -88.62374612 Ry
     Harris-Foulkes estimate   =     -87.67404273 Ry
     estimated scf accuracy    <       0.00205368 Ry

     iteration #  2     ecut=    40.00 Ry     beta= 0.50
     Davidson diagonalization with overlap
     ethr =  6.42E-06,  avg # of iterations =  2.2

     total cpu time spent up to now is      626.5 secs

     total energy              =     -88.62502505 Ry
     Harris-Foulkes estimate   =     -88.62512455 Ry
     estimated scf accuracy    <       0.00023619 Ry

     iteration #  3     ecut=    40.00 Ry     beta= 0.50
     Davidson diagonalization with overlap
     ethr =  7.38E-07,  avg # of iterations =  2.3

     total cpu time spent up to now is      631.5 secs

     total energy              =     -88.62507741 Ry
     Harris-Foulkes estimate   =     -88.62509913 Ry
     estimated scf accuracy    <       0.00006663 Ry

     iteration #  4     ecut=    40.00 Ry     beta= 0.50
     Davidson diagonalization with overlap
     ethr =  2.08E-07,  avg # of iterations =  1.9

     total cpu time spent up to now is      636.1 secs

     total energy              =     -88.62509060 Ry
     Harris-Foulkes estimate   =     -88.62509085 Ry
     estimated scf accuracy    <       0.00000861 Ry

     iteration #  5     ecut=    40.00 Ry     beta= 0.50
     Davidson diagonalization with overlap
     ethr =  2.69E-08,  avg # of iterations =  2.3

     total cpu time spent up to now is      641.2 secs

     total energy              =     -88.62509198 Ry
     Harris-Foulkes estimate   =     -88.62509221 Ry
     estimated scf accuracy    <       0.00000080 Ry

     iteration #  6     ecut=    40.00 Ry     beta= 0.50
     Davidson diagonalization with overlap
     ethr =  2.51E-09,  avg # of iterations =  2.8

     total cpu time spent up to now is      647.2 secs

     total energy              =     -88.62509218 Ry
     Harris-Foulkes estimate   =     -88.62509221 Ry
     estimated scf accuracy    <       0.00000011 Ry

     iteration #  7     ecut=    40.00 Ry     beta= 0.50
     Davidson diagonalization with overlap
     ethr =  3.29E-10,  avg # of iterations =  3.9

     total cpu time spent up to now is      654.5 secs

     total energy              =     -88.63012082 Ry
     Harris-Foulkes estimate   =     -88.63015532 Ry
     estimated scf accuracy    <       0.02614946 Ry

     iteration #  8     ecut=    40.00 Ry     beta= 0.50
     Davidson diagonalization with overlap
     ethr =  3.29E-10,  avg # of iterations =  2.7

     total cpu time spent up to now is      660.3 secs

     total energy              =     -88.63016415 Ry
     Harris-Foulkes estimate   =     -88.63012087 Ry
     estimated scf accuracy    <       0.02597654 Ry

     iteration #  9     ecut=    40.00 Ry     beta= 0.50
     Davidson diagonalization with overlap
     ethr =  3.29E-10,  avg # of iterations =  3.2

     total cpu time spent up to now is      666.9 secs

     total energy              =     -88.63003898 Ry
     Harris-Foulkes estimate   =     -88.63016422 Ry
     estimated scf accuracy    <       0.02619002 Ry

     iteration # 10     ecut=    40.00 Ry     beta= 0.50
     Davidson diagonalization with overlap
     ethr =  3.29E-10,  avg # of iterations =  3.8

     total cpu time spent up to now is      674.6 secs

     total energy              =     -88.62994124 Ry
     Harris-Foulkes estimate   =     -88.63003953 Ry
     estimated scf accuracy    <       0.02557215 Ry

     iteration # 11     ecut=    40.00 Ry     beta= 0.50
     Davidson diagonalization with overlap
     ethr =  3.29E-10,  avg # of iterations =  3.5

     total cpu time spent up to now is      681.9 secs

     total energy              =     -88.62984657 Ry
     Harris-Foulkes estimate   =     -88.62994158 Ry
     estimated scf accuracy    <       0.02508546 Ry

     iteration # 12     ecut=    40.00 Ry     beta= 0.50
     Davidson diagonalization with overlap
     ethr =  3.29E-10,  avg # of iterations =  4.5

     total cpu time spent up to now is      690.5 secs

     total energy              =     -88.62992367 Ry
     Harris-Foulkes estimate   =     -88.62984690 Ry
     estimated scf accuracy    <       0.02461453 Ry

     iteration # 13     ecut=    40.00 Ry     beta= 0.50
     Davidson diagonalization with overlap
     ethr =  3.29E-10,  avg # of iterations =  3.3

     total cpu time spent up to now is      697.6 secs

     total energy              =     -88.62885777 Ry
     Harris-Foulkes estimate   =     -88.62992389 Ry
     estimated scf accuracy    <       0.02499685 Ry

     iteration # 14     ecut=    40.00 Ry     beta= 0.50
     Davidson diagonalization with overlap
     ethr =  3.29E-10,  avg # of iterations =  5.6

     total cpu time spent up to now is      709.5 secs

     total energy              =     -88.62779202 Ry
     Harris-Foulkes estimate   =     -88.62890095 Ry
     estimated scf accuracy    <       0.01987818 Ry

     iteration # 15     ecut=    40.00 Ry     beta= 0.50
     Davidson diagonalization with overlap
     ethr =  3.29E-10,  avg # of iterations =  5.8

     total cpu time spent up to now is      722.1 secs

     total energy              =     -88.62275947 Ry
     Harris-Foulkes estimate   =     -88.62785259 Ry
     estimated scf accuracy    <       0.01454905 Ry

     iteration # 16     ecut=    40.00 Ry     beta= 0.50
     Davidson diagonalization with overlap
     c_bands:  3 eigenvalues not converged
     ethr =  3.29E-10,  avg # of iterations =  8.8

     total cpu time spent up to now is      740.2 secs

     total energy              =     -88.63037793 Ry
     Harris-Foulkes estimate   =     -88.63071324 Ry
     estimated scf accuracy    <       0.02888652 Ry

     iteration # 17     ecut=    40.00 Ry     beta= 0.50
     Davidson diagonalization with overlap
     ethr =  3.29E-10,  avg # of iterations =  4.9

     total cpu time spent up to now is      750.7 secs

[...]

     total cpu time spent up to now is     1457.1 secs

     total energy              =     -88.62642108 Ry
     Harris-Foulkes estimate   =     -88.62650008 Ry
     estimated scf accuracy    <       0.00751596 Ry

     iteration # 74     ecut=    40.00 Ry     beta= 0.50
     Davidson diagonalization with overlap
     ethr =  3.29E-10,  avg # of iterations =  3.7

     total cpu time spent up to now is     1468.8 secs

     total energy              =     -88.62638357 Ry
     Harris-Foulkes estimate   =     -88.62642190 Ry
     estimated scf accuracy    <       0.00710544 Ry

     iteration # 75     ecut=    40.00 Ry     beta= 0.50
     Davidson diagonalization with overlap
     ethr =  3.29E-10,  avg # of iterations =  3.4

     total cpu time spent up to now is     1479.5 secs

     total energy              =     -88.62644099 Ry
     Harris-Foulkes estimate   =     -88.62638377 Ry
     estimated scf accuracy    <       0.00690500 Ry

     iteration # 76     ecut=    40.00 Ry     beta= 0.50
     Davidson diagonalization with overlap
     ethr =  3.29E-10,  avg # of iterations =  3.4

     total cpu time spent up to now is     1490.3 secs

     total energy              =     -88.62404351 Ry
     Harris-Foulkes estimate   =     -88.62644146 Ry
     estimated scf accuracy    <       0.00720784 Ry

     iteration # 77     ecut=    40.00 Ry     beta= 0.50
     Davidson diagonalization with overlap
     c_bands:  4 eigenvalues not converged
     ethr =  3.29E-10,  avg # of iterations =  8.2

     total cpu time spent up to now is     1514.6 secs

     total energy              =     -88.62885324 Ry
     Harris-Foulkes estimate   =     -88.63027529 Ry
     estimated scf accuracy    <       0.02673329 Ry

     iteration # 78     ecut=    40.00 Ry     beta= 0.50
     Davidson diagonalization with overlap
     ethr =  3.29E-10,  avg # of iterations =  6.5

     total cpu time spent up to now is     1534.3 secs

     total energy              =     -88.62817789 Ry
     Harris-Foulkes estimate   =     -88.62892533 Ry
     estimated scf accuracy    <       0.01999185 Ry

     iteration # 79     ecut=    40.00 Ry     beta= 0.50
     Davidson diagonalization with overlap
     ethr =  3.29E-10,  avg # of iterations =  5.6

     total cpu time spent up to now is     1551.6 secs

     total energy              =     -88.62760975 Ry
     Harris-Foulkes estimate   =     -88.62820488 Ry
     estimated scf accuracy    <       0.01633756 Ry

     iteration # 80     ecut=    40.00 Ry     beta= 0.50
     Davidson diagonalization with overlap
     ethr =  3.29E-10,  avg # of iterations =  5.3

     total cpu time spent up to now is     1568.5 secs

     total energy              =     -88.62722861 Ry
     Harris-Foulkes estimate   =     -88.62763095 Ry
     estimated scf accuracy    <       0.01339723 Ry

     iteration # 81     ecut=    40.00 Ry     beta= 0.50
     Davidson diagonalization with overlap
     ethr =  3.29E-10,  avg # of iterations =  4.8

     total cpu time spent up to now is     1584.3 secs

     total energy              =     -88.62703114 Ry
     Harris-Foulkes estimate   =     -88.62724050 Ry
     estimated scf accuracy    <       0.01138173 Ry

     iteration # 82     ecut=    40.00 Ry     beta= 0.50
     Davidson diagonalization with overlap
     ethr =  3.29E-10,  avg # of iterations =  4.2

     total cpu time spent up to now is     1599.1 secs

     total energy              =     -88.62688004 Ry
     Harris-Foulkes estimate   =     -88.62703493 Ry
     estimated scf accuracy    <       0.01031534 Ry

     iteration # 83     ecut=    40.00 Ry     beta= 0.50
     Davidson diagonalization with overlap
     ethr =  3.29E-10,  avg # of iterations =  4.2

     total cpu time spent up to now is     1613.0 secs

     total energy              =     -88.62629101 Ry
     Harris-Foulkes estimate   =     -88.62688234 Ry
     estimated scf accuracy    <       0.00951975 Ry

     iteration # 84     ecut=    40.00 Ry     beta= 0.50
     Davidson diagonalization with overlap
     c_bands:  1 eigenvalues not converged
     ethr =  3.29E-10,  avg # of iterations =  6.8

     total cpu time spent up to now is     1633.4 secs

     total energy              =     -88.62639351 Ry
     Harris-Foulkes estimate   =     -88.62642987 Ry
     estimated scf accuracy    <       0.00707551 Ry

     iteration # 85     ecut=    40.00 Ry     beta= 0.50
     Davidson diagonalization with overlap
     ethr =  3.29E-10,  avg # of iterations =  3.4

     total cpu time spent up to now is     1644.8 secs

     total energy              =     -88.62826622 Ry
     Harris-Foulkes estimate   =     -88.62639370 Ry
     estimated scf accuracy    <       0.00688601 Ry

     iteration # 86     ecut=    40.00 Ry     beta= 0.50
     Davidson diagonalization with overlap
     ethr =  3.29E-10,  avg # of iterations =  7.7

     total cpu time spent up to now is     1669.0 secs

     total energy              =     -88.62735343 Ry
     Harris-Foulkes estimate   =     -88.62870005 Ry
     estimated scf accuracy    <       0.01884956 Ry

     iteration # 87     ecut=    40.00 Ry     beta= 0.50
     Davidson diagonalization with overlap
     ethr =  3.29E-10,  avg # of iterations =  6.4

     total cpu time spent up to now is     1693.3 secs

     total energy              =     -88.62694077 Ry
     Harris-Foulkes estimate   =     -88.62744913 Ry
     estimated scf accuracy    <       0.01245953 Ry

     iteration # 88     ecut=    40.00 Ry     beta= 0.50
     Davidson diagonalization with overlap
     ethr =  3.29E-10,  avg # of iterations =  5.2

     total cpu time spent up to now is     1710.6 secs

     total energy              =     -88.62625067 Ry
     Harris-Foulkes estimate   =     -88.62696149 Ry
     estimated scf accuracy    <       0.00992972 Ry

     iteration # 89     ecut=    40.00 Ry     beta= 0.50
     Davidson diagonalization with overlap
     c_bands:  4 eigenvalues not converged
     ethr =  3.29E-10,  avg # of iterations =  6.9

     total cpu time spent up to now is     1732.4 secs

     total energy              =     -88.62645375 Ry
     Harris-Foulkes estimate   =     -88.62645647 Ry
     estimated scf accuracy    <       0.00725770 Ry

     iteration # 90     ecut=    40.00 Ry     beta= 0.50
     Davidson diagonalization with overlap
     ethr =  3.29E-10,  avg # of iterations =  1.5

     total cpu time spent up to now is     1739.5 secs

     total energy              =     -88.62643243 Ry
     Harris-Foulkes estimate   =     -88.62645385 Ry
     estimated scf accuracy    <       0.00724754 Ry

     iteration # 91     ecut=    40.00 Ry     beta= 0.50
     Davidson diagonalization with overlap
     ethr =  3.29E-10,  avg # of iterations =  2.6

     total cpu time spent up to now is     1749.3 secs

     total energy              =     -88.62665060 Ry
     Harris-Foulkes estimate   =     -88.62643250 Ry
     estimated scf accuracy    <       0.00713346 Ry

     iteration # 92     ecut=    40.00 Ry     beta= 0.50
     Davidson diagonalization with overlap
     ethr =  3.29E-10,  avg # of iterations =  4.8

     total cpu time spent up to now is     1766.2 secs

     total energy              =     -88.62635467 Ry
     Harris-Foulkes estimate   =     -88.62665734 Ry
     estimated scf accuracy    <       0.00833784 Ry

     iteration # 93     ecut=    40.00 Ry     beta= 0.50
     Davidson diagonalization with overlap
     c_bands:  1 eigenvalues not converged
     ethr =  3.29E-10,  avg # of iterations =  6.2

     total cpu time spent up to now is     1785.7 secs

     total energy              =     -88.62637918 Ry
     Harris-Foulkes estimate   =     -88.62639298 Ry
     estimated scf accuracy    <       0.00486845 Ry

     iteration # 94     ecut=    40.00 Ry     beta= 0.50
     Davidson diagonalization with overlap
     ethr =  3.29E-10,  avg # of iterations =  3.6

     total cpu time spent up to now is     1797.7 secs

     total energy              =     -88.62638911 Ry
     Harris-Foulkes estimate   =     -88.62638988 Ry
     estimated scf accuracy    <       0.00097058 Ry

     iteration # 95     ecut=    40.00 Ry     beta= 0.50
     Davidson diagonalization with overlap
     ethr =  3.29E-10,  avg # of iterations =  3.6

     total cpu time spent up to now is     1809.8 secs

     total energy              =     -88.62640966 Ry
     Harris-Foulkes estimate   =     -88.62639302 Ry
     estimated scf accuracy    <       0.00299103 Ry

     iteration # 96     ecut=    40.00 Ry     beta= 0.50
     Davidson diagonalization with overlap
     c_bands:  1 eigenvalues not converged
     ethr =  3.29E-10,  avg # of iterations =  4.8

     total cpu time spent up to now is     1824.8 secs

     total energy              =     -88.62656093 Ry
     Harris-Foulkes estimate   =     -88.62643441 Ry
     estimated scf accuracy    <       0.00712051 Ry

     iteration # 97     ecut=    40.00 Ry     beta= 0.50
     Davidson diagonalization with overlap
     ethr =  3.29E-10,  avg # of iterations =  5.2

     total cpu time spent up to now is     1841.6 secs

     total energy              =     -88.62634878 Ry
     Harris-Foulkes estimate   =     -88.62656346 Ry
     estimated scf accuracy    <       0.00784392 Ry

     iteration # 98     ecut=    40.00 Ry     beta= 0.50
     Davidson diagonalization with overlap
     ethr =  3.29E-10,  avg # of iterations =  5.6

     total cpu time spent up to now is     1860.7 secs

     total energy              =     -88.62639500 Ry
     Harris-Foulkes estimate   =     -88.62639390 Ry
     estimated scf accuracy    <       0.00399512 Ry

     iteration # 99     ecut=    40.00 Ry     beta= 0.50
     Davidson diagonalization with overlap
     ethr =  3.29E-10,  avg # of iterations =  1.0

     total cpu time spent up to now is     1867.3 secs

     total energy              =     -88.62639557 Ry
     Harris-Foulkes estimate   =     -88.62639500 Ry
     estimated scf accuracy    <       0.00399966 Ry

     iteration #100     ecut=    40.00 Ry     beta= 0.50
     Davidson diagonalization with overlap
     ethr =  3.29E-10,  avg # of iterations =  1.0

     total cpu time spent up to now is     1873.8 secs

     total energy              =     -88.62638732 Ry
     Harris-Foulkes estimate   =     -88.62639557 Ry
     estimated scf accuracy    <       0.00400238 Ry

     iteration #101     ecut=    40.00 Ry     beta= 0.50
     Davidson diagonalization with overlap
     ethr =  3.29E-10,  avg # of iterations =  2.3

     total cpu time spent up to now is     1883.2 secs

     total energy              =     -88.62805042 Ry
     Harris-Foulkes estimate   =     -88.62638735 Ry
     estimated scf accuracy    <       0.00396136 Ry

     iteration #102     ecut=    40.00 Ry     beta= 0.50
     Davidson diagonalization with overlap
     c_bands:  4 eigenvalues not converged
     ethr =  3.29E-10,  avg # of iterations =  8.3

     total cpu time spent up to now is     1912.2 secs

     total energy              =     -88.62750098 Ry
     Harris-Foulkes estimate   =     -88.62994374 Ry
     estimated scf accuracy    <       0.02508756 Ry

     iteration #103     ecut=    40.00 Ry     beta= 0.50
     Davidson diagonalization with overlap
     c_bands:  3 eigenvalues not converged
     ethr =  3.29E-10,  avg # of iterations =  8.1

     total cpu time spent up to now is     1940.5 secs

     total energy              =     -88.62702708 Ry
     Harris-Foulkes estimate   =     -88.62774399 Ry
     estimated scf accuracy    <       0.01397440 Ry

     iteration #104     ecut=    40.00 Ry     beta= 0.50
     Davidson diagonalization with overlap
     ethr =  3.29E-10,  avg # of iterations =  6.0

     total cpu time spent up to now is     1962.6 secs

     total energy              =     -88.62657131 Ry
     Harris-Foulkes estimate   =     -88.62706420 Ry
     estimated scf accuracy    <       0.01046245 Ry

     iteration #105     ecut=    40.00 Ry     beta= 0.50
     Davidson diagonalization with overlap
     ethr =  3.29E-10,  avg # of iterations =  6.6

     total cpu time spent up to now is     1984.9 secs

     total energy              =     -88.62659884 Ry
     Harris-Foulkes estimate   =     -88.62659483 Ry
     estimated scf accuracy    <       0.00801090 Ry

     iteration #106     ecut=    40.00 Ry     beta= 0.50
     Davidson diagonalization with overlap
     ethr =  3.29E-10,  avg # of iterations =  1.0

     total cpu time spent up to now is     1991.7 secs

     total energy              =     -88.62385881 Ry
     Harris-Foulkes estimate   =     -88.62659884 Ry
     estimated scf accuracy    <       0.00802744 Ry

     iteration #107     ecut=    40.00 Ry     beta= 0.50
     Davidson diagonalization with overlap
     c_bands:  3 eigenvalues not converged
     ethr =  3.29E-10,  avg # of iterations =  8.3

     total cpu time spent up to now is     2021.8 secs

     total energy              =     -88.62784939 Ry
     Harris-Foulkes estimate   =     -88.63043269 Ry
     estimated scf accuracy    <       0.02749250 Ry

     iteration #108     ecut=    40.00 Ry     beta= 0.50
     Davidson diagonalization with overlap
     c_bands:  1 eigenvalues not converged
     ethr =  3.29E-10,  avg # of iterations =  7.7

     total cpu time spent up to now is     2049.3 secs

     total energy              =     -88.62698451 Ry
     Harris-Foulkes estimate   =     -88.62809005 Ry
     estimated scf accuracy    <       0.01575079 Ry

     iteration #109     ecut=    40.00 Ry     beta= 0.50
     Davidson diagonalization with overlap
     ethr =  3.29E-10,  avg # of iterations =  6.4

     total cpu time spent up to now is     2073.2 secs

     total energy              =     -88.62644429 Ry
     Harris-Foulkes estimate   =     -88.62706279 Ry
     estimated scf accuracy    <       0.01045698 Ry

     iteration #110     ecut=    40.00 Ry     beta= 0.50
     Davidson diagonalization with overlap
     ethr =  3.29E-10,  avg # of iterations =  5.7

     total cpu time spent up to now is     2095.0 secs

     total energy              =     -88.62651543 Ry
     Harris-Foulkes estimate   =     -88.62648167 Ry
     estimated scf accuracy    <       0.00741958 Ry

     iteration #111     ecut=    40.00 Ry     beta= 0.50
     Davidson diagonalization with overlap
     ethr =  3.29E-10,  avg # of iterations =  3.4

     total cpu time spent up to now is     2108.6 secs

     total energy              =     -88.62648135 Ry
     Harris-Foulkes estimate   =     -88.62651558 Ry
     estimated scf accuracy    <       0.00759656 Ry

     iteration #112     ecut=    40.00 Ry     beta= 0.50
     Davidson diagonalization with overlap
     ethr =  3.29E-10,  avg # of iterations =  3.3

     total cpu time spent up to now is     2121.7 secs

     total energy              =     -88.62643147 Ry
     Harris-Foulkes estimate   =     -88.62648150 Ry
     estimated scf accuracy    <       0.00741821 Ry

     iteration #113     ecut=    40.00 Ry     beta= 0.50
     Davidson diagonalization with overlap
     ethr =  3.29E-10,  avg # of iterations =  3.4

     total cpu time spent up to now is     2135.4 secs

     total energy              =     -88.62646147 Ry
     Harris-Foulkes estimate   =     -88.62643181 Ry
     estimated scf accuracy    <       0.00715705 Ry

     iteration #114     ecut=    40.00 Ry     beta= 0.50
     Davidson diagonalization with overlap
     ethr =  3.29E-10,  avg # of iterations =  3.2

     total cpu time spent up to now is     2148.5 secs

     total energy              =     -88.62642566 Ry
     Harris-Foulkes estimate   =     -88.62646159 Ry
     estimated scf accuracy    <       0.00731300 Ry

     iteration #115     ecut=    40.00 Ry     beta= 0.50
     Davidson diagonalization with overlap
     ethr =  3.29E-10,  avg # of iterations =  3.4

     total cpu time spent up to now is     2162.1 secs

     total energy              =     -88.62404279 Ry
     Harris-Foulkes estimate   =     -88.62642584 Ry
     estimated scf accuracy    <       0.00712569 Ry

     iteration #116     ecut=    40.00 Ry     beta= 0.50
     Davidson diagonalization with overlap
     c_bands:  2 eigenvalues not converged
     ethr =  3.29E-10,  avg # of iterations =  8.2

     total cpu time spent up to now is     2193.5 secs

     total energy              =     -88.62899460 Ry
     Harris-Foulkes estimate   =     -88.63030697 Ry
     estimated scf accuracy    <       0.02689021 Ry

     iteration #117     ecut=    40.00 Ry     beta= 0.50
     Davidson diagonalization with overlap
     ethr =  3.29E-10,  avg # of iterations =  6.2

     total cpu time spent up to now is     2217.4 secs

     total energy              =     -88.62581434 Ry
     Harris-Foulkes estimate   =     -88.62905525 Ry
     estimated scf accuracy    <       0.02064658 Ry

     iteration #118     ecut=    40.00 Ry     beta= 0.50
     Davidson diagonalization with overlap
     c_bands:  4 eigenvalues not converged
     ethr =  3.29E-10,  avg # of iterations =  8.0

     total cpu time spent up to now is     2248.5 secs

     total energy              =     -88.62643998 Ry
     Harris-Foulkes estimate   =     -88.62640214 Ry
     estimated scf accuracy    <       0.00589878 Ry

     iteration #119     ecut=    40.00 Ry     beta= 0.50
     Davidson diagonalization with overlap
     c_bands:  4 eigenvalues not converged
     ethr =  3.29E-10,  avg # of iterations =  4.8

     total cpu time spent up to now is     2266.0 secs

     total energy              =     -88.62608513 Ry
     Harris-Foulkes estimate   =     -88.62644342 Ry
     estimated scf accuracy    <       0.00716498 Ry

     iteration #120     ecut=    40.00 Ry     beta= 0.50
     Davidson diagonalization with overlap
     ethr =  3.29E-10,  avg # of iterations =  6.0

     total cpu time spent up to now is     2289.5 secs

     total energy              =     -88.62679133 Ry
     Harris-Foulkes estimate   =     -88.62668844 Ry
     estimated scf accuracy    <       0.00849831 Ry

     iteration #121     ecut=    40.00 Ry     beta= 0.50
     Davidson diagonalization with overlap
     ethr =  3.29E-10,  avg # of iterations =  4.0

     total cpu time spent up to now is     2306.3 secs

     total energy              =     -88.62655142 Ry
     Harris-Foulkes estimate   =     -88.62679258 Ry
     estimated scf accuracy    <       0.00904618 Ry

     iteration #122     ecut=    40.00 Ry     beta= 0.50
     Davidson diagonalization with overlap
     ethr =  3.29E-10,  avg # of iterations =  4.5

     total cpu time spent up to now is     2325.8 secs

     total energy              =     -88.62656221 Ry
     Harris-Foulkes estimate   =     -88.62655786 Ry
     estimated scf accuracy    <       0.00781777 Ry

     iteration #123     ecut=    40.00 Ry     beta= 0.50
     Davidson diagonalization with overlap
     ethr =  3.29E-10,  avg # of iterations =  1.0

     total cpu time spent up to now is     2333.5 secs

     total energy              =     -88.62650675 Ry
     Harris-Foulkes estimate   =     -88.62656221 Ry
     estimated scf accuracy    <       0.00783629 Ry

     iteration #124     ecut=    40.00 Ry     beta= 0.50
     Davidson diagonalization with overlap
     ethr =  3.29E-10,  avg # of iterations =  3.4

     total cpu time spent up to now is     2348.4 secs

     total energy              =     -88.62505255 Ry
     Harris-Foulkes estimate   =     -88.62650712 Ry
     estimated scf accuracy    <       0.00755224 Ry

     iteration #125     ecut=    40.00 Ry     beta= 0.50
     Davidson diagonalization with overlap
     ethr =  3.29E-10,  avg # of iterations =  7.2

     total cpu time spent up to now is     2378.1 secs

     total energy              =     -88.62742366 Ry
     Harris-Foulkes estimate   =     -88.62809490 Ry
     estimated scf accuracy    <       0.01577360 Ry

     iteration #126     ecut=    40.00 Ry     beta= 0.50
     Davidson diagonalization with overlap
