
     Program PWSCF v.6.5 starts on  9Jul2022 at 19:55:59 

     This program is part of the open-source Quantum ESPRESSO suite
     for quantum simulation of materials; please cite
         "P. Giannozzi et al., J. Phys.:Condens. Matter 21 395502 (2009);
         "P. Giannozzi et al., J. Phys.:Condens. Matter 29 465901 (2017);
          URL http://www.quantum-espresso.org", 
     in publications or presentations arising from this work. More details at
     http://www.quantum-espresso.org/quote

     Parallel version (MPI), running on    96 processors

     MPI processes distributed on     2 nodes
     R & G space division:  proc/nbgrp/npool/nimage =      96
     Waiting for input...
     Reading input from standard input
     Message from routine read_cards :
     DEPRECATED: no units specified in CELL_PARAMETERS card

     Current dimensions of program PWSCF are:
     Max number of different atomic species (ntypx) = 10
     Max number of k-points (npk) =  40000
     Max angular momentum in pseudopotentials (lmaxx) =  3

     Subspace diagonalization in iterative solution of the eigenvalue problem:
     one sub-group per band group will be used
     scalapack distributed-memory algorithm (size of sub-group:  9*  9 procs)

 
     Parallelization info
     --------------------
     sticks:   dense  smooth     PW     G-vecs:    dense   smooth      PW
     Min          16      16      5                  204      204      35
     Max          17      17      6                  207      207      38
     Sum        1577    1577    503                19759    19759    3509
 


     bravais-lattice index     =            0
     lattice parameter (alat)  =      15.3938  a.u.
     unit-cell volume          =     577.9640 (a.u.)^3
     number of atoms/cell      =            8
     number of atomic types    =            1
     number of electrons       =        32.00
     number of Kohn-Sham states=           20
     kinetic-energy cutoff     =      40.0000  Ry
     charge density cutoff     =     160.0000  Ry
     convergence threshold     =      1.0E-06
     mixing beta               =       0.5000
     number of iterations used =            8  plain     mixing
     Exchange-correlation=  SLA  PW   PBE  PBE
                           (   1   4   3   4   0   0   0)
     nstep                     =          250


     celldm(1)=  15.393764  celldm(2)=   0.000000  celldm(3)=   0.000000
     celldm(4)=   0.000000  celldm(5)=   0.000000  celldm(6)=   0.000000

     crystal axes: (cart. coord. in units of alat)
               a(1) = (   0.995598   0.093726   0.000227 )  
               a(2) = (   0.043401   0.528552   0.000273 )  
               a(3) = (   0.000045   0.000026   0.303435 )  

     reciprocal axes: (cart. coord. in units 2 pi/alat)
               b(1) = (  1.012246 -0.083118 -0.000145 )  
               b(2) = ( -0.179498  1.906702 -0.000136 )  
               b(3) = ( -0.000597 -0.001652  3.295604 )  


     PseudoPot. # 1 for C  read from file:
     ./C.pbe-van_bm.upf
     MD5 check sum: 1a69bf6b8db32088f5b2163dbdb77a27
     Pseudo is Ultrasoft, Zval =  4.0
     Generated by new atomic code, or converted to UPF format
     Using radial grid of  721 points,  4 beta functions with: 
                l(1) =   0
                l(2) =   0
                l(3) =   1
                l(4) =   1
     Q(r) pseudized with  8 coefficients,  rinner =    0.800   0.800   0.800


     atomic species   valence    mass     pseudopotential
        C              4.00    12.00000     C ( 1.00)

     No symmetry found



   Cartesian axes

     site n.     atom                  positions (alat units)
         1           C   tau(   1) = (   0.9500653   0.3981232   0.2070301  )
         2           C   tau(   2) = (   0.1754418   0.1205682   0.2067384  )
         3           C   tau(   3) = (   1.0052117   0.4681641   0.0553206  )
         4           C   tau(   4) = (   0.2316301   0.1897154   0.0550257  )
         5           C   tau(   5) = (   0.5968787   0.4982070   0.2165638  )
         6           C   tau(   6) = (   0.9934886   0.2225653   0.2070531  )
         7           C   tau(   7) = (   0.5935964   0.4996683   0.0648467  )
         8           C   tau(   8) = (   0.1875117   0.3652892   0.0549379  )

     number of k points=    12  Marzari-Vanderbilt smearing, width (Ry)=  0.0200
                       cart. coord. in units 2pi/alat
        k(    1) = (   0.0000000   0.0000000   0.0000000), wk =   0.1250000
        k(    2) = (  -0.0001493  -0.0004130   0.8239009), wk =   0.2500000
        k(    3) = (   0.0002985   0.0008261  -1.6478018), wk =   0.1250000
        k(    4) = (   0.0897491  -0.9533508   0.0000682), wk =   0.1250000
        k(    5) = (   0.0895998  -0.9537638   0.8239691), wk =   0.2500000
        k(    6) = (   0.0900476  -0.9525247  -1.6477336), wk =   0.1250000
        k(    7) = (  -0.5061232   0.0415590   0.0000723), wk =   0.1250000
        k(    8) = (  -0.5062724   0.0411460   0.8239732), wk =   0.2500000
        k(    9) = (  -0.5058246   0.0423851  -1.6477295), wk =   0.1250000
        k(   10) = (  -0.4163741  -0.9117918   0.0001405), wk =   0.1250000
        k(   11) = (  -0.4165233  -0.9122049   0.8240414), wk =   0.2500000
        k(   12) = (  -0.4160755  -0.9109657  -1.6476614), wk =   0.1250000

     Dense  grid:    19759 G-vectors     FFT dimensions: (  64,  36,  20)

     Estimated max dynamical RAM per process >       2.71 MB

     Estimated total dynamical RAM >     260.22 MB

     Initial potential from superposition of free atoms

     starting charge   31.99968, renormalised to   32.00000
     Starting wfcs are   32 randomized atomic wfcs

     total cpu time spent up to now is        1.8 secs

     Self-consistent Calculation

     iteration #  1     ecut=    40.00 Ry     beta= 0.50
     Davidson diagonalization with overlap
     ethr =  1.00E-02,  avg # of iterations =  2.0

     total cpu time spent up to now is        2.5 secs

     total energy              =     -89.47040364 Ry
     Harris-Foulkes estimate   =     -90.46511604 Ry
     estimated scf accuracy    <       1.59171884 Ry

     iteration #  2     ecut=    40.00 Ry     beta= 0.50
     Davidson diagonalization with overlap
     ethr =  4.97E-03,  avg # of iterations =  3.0

     total cpu time spent up to now is        3.3 secs

     total energy              =     -88.70715863 Ry
     Harris-Foulkes estimate   =     -91.80543748 Ry
     estimated scf accuracy    <      17.00678160 Ry

     iteration #  3     ecut=    40.00 Ry     beta= 0.50
     Davidson diagonalization with overlap
     ethr =  4.97E-03,  avg # of iterations =  2.2

     total cpu time spent up to now is        4.0 secs

     total energy              =     -90.11215259 Ry
     Harris-Foulkes estimate   =     -90.15092750 Ry
     estimated scf accuracy    <       0.12797965 Ry

     iteration #  4     ecut=    40.00 Ry     beta= 0.50
     Davidson diagonalization with overlap
     ethr =  4.00E-04,  avg # of iterations =  2.2

     total cpu time spent up to now is        4.5 secs

     total energy              =     -90.11842494 Ry
     Harris-Foulkes estimate   =     -90.16065910 Ry
     estimated scf accuracy    <       0.22423880 Ry

     iteration #  5     ecut=    40.00 Ry     beta= 0.50
     Davidson diagonalization with overlap
     ethr =  4.00E-04,  avg # of iterations =  1.3

     total cpu time spent up to now is        5.0 secs

     total energy              =     -90.13336947 Ry
     Harris-Foulkes estimate   =     -90.14539930 Ry
     estimated scf accuracy    <       0.04507275 Ry

     iteration #  6     ecut=    40.00 Ry     beta= 0.50
     Davidson diagonalization with overlap
     ethr =  1.41E-04,  avg # of iterations =  2.2

     total cpu time spent up to now is        5.5 secs

     total energy              =     -90.13830714 Ry
     Harris-Foulkes estimate   =     -90.14415333 Ry
     estimated scf accuracy    <       0.05013424 Ry

     iteration #  7     ecut=    40.00 Ry     beta= 0.50
     Davidson diagonalization with overlap
     ethr =  1.41E-04,  avg # of iterations =  1.0

     total cpu time spent up to now is        5.9 secs

     total energy              =     -90.14062869 Ry
     Harris-Foulkes estimate   =     -90.14113858 Ry
     estimated scf accuracy    <       0.00193993 Ry

     iteration #  8     ecut=    40.00 Ry     beta= 0.50
     Davidson diagonalization with overlap
     ethr =  6.06E-06,  avg # of iterations =  3.0

     total cpu time spent up to now is        6.6 secs

     total energy              =     -90.14086474 Ry
     Harris-Foulkes estimate   =     -90.14133377 Ry
     estimated scf accuracy    <       0.00466092 Ry

     iteration #  9     ecut=    40.00 Ry     beta= 0.50
     Davidson diagonalization with overlap
     ethr =  6.06E-06,  avg # of iterations =  1.2

     total cpu time spent up to now is        7.1 secs

     total energy              =     -90.14112454 Ry
     Harris-Foulkes estimate   =     -90.14118970 Ry
     estimated scf accuracy    <       0.00041086 Ry

     iteration # 10     ecut=    40.00 Ry     beta= 0.50
     Davidson diagonalization with overlap
     ethr =  1.28E-06,  avg # of iterations =  1.4

     total cpu time spent up to now is        7.5 secs

     total energy              =     -90.14114192 Ry
     Harris-Foulkes estimate   =     -90.14115350 Ry
     estimated scf accuracy    <       0.00006294 Ry

     iteration # 11     ecut=    40.00 Ry     beta= 0.50
     Davidson diagonalization with overlap
     ethr =  1.97E-07,  avg # of iterations =  2.3

     total cpu time spent up to now is        8.1 secs

     total energy              =     -90.14114872 Ry
     Harris-Foulkes estimate   =     -90.14114970 Ry
     estimated scf accuracy    <       0.00000546 Ry

     iteration # 12     ecut=    40.00 Ry     beta= 0.50
     Davidson diagonalization with overlap
     ethr =  1.70E-08,  avg # of iterations =  2.8

     total cpu time spent up to now is        8.8 secs

     total energy              =     -90.14114960 Ry
     Harris-Foulkes estimate   =     -90.14114995 Ry
     estimated scf accuracy    <       0.00000295 Ry

     iteration # 13     ecut=    40.00 Ry     beta= 0.50
     Davidson diagonalization with overlap
     ethr =  9.22E-09,  avg # of iterations =  1.4

     total cpu time spent up to now is        9.3 secs

     total energy              =     -90.14114973 Ry
     Harris-Foulkes estimate   =     -90.14114985 Ry
     estimated scf accuracy    <       0.00000115 Ry

     iteration # 14     ecut=    40.00 Ry     beta= 0.50
     Davidson diagonalization with overlap
     ethr =  3.59E-09,  avg # of iterations =  1.0

     total cpu time spent up to now is        9.7 secs

     End of self-consistent calculation

          k = 0.0000 0.0000 0.0000 (  2475 PWs)   bands (ev):

   -16.0132 -12.3046 -12.2658  -9.2309  -5.8893  -5.5809  -5.0552  -2.2436
    -1.9092  -1.4253  -1.2442  -0.9505  -0.1859   1.2207   3.6799   5.2548
     6.7374   7.4404   9.0694   9.1543

          k =-0.0001-0.0004 0.8239 (  2473 PWs)   bands (ev):

   -14.8810 -11.4716 -11.2403  -8.8455  -6.4602  -5.1343  -4.8796  -4.8004
    -3.3961  -1.2246  -1.0762   0.0447   0.2164   1.9697   3.4074   4.0985
     4.3701   5.9983   7.2693   8.2163

          k = 0.0003 0.0008-1.6478 (  2478 PWs)   bands (ev):

   -11.6857 -11.6678  -9.2263  -9.2201  -8.2435  -8.2392  -5.0014  -4.9606
    -2.2225  -2.1947   0.9116   0.9516   2.3574   2.3626   3.9143   3.9872
     4.4898   4.5144   4.8880   4.9021

          k = 0.0897-0.9534 0.0001 (  2452 PWs)   bands (ev):

   -15.7259 -12.6373 -12.2321 -10.0544  -6.3791  -5.0536  -4.4642  -1.6991
    -1.4872  -1.3185  -1.3062  -0.2331   0.3192   0.9047   3.3099   5.1167
     5.1570   7.0028   7.7741   9.0925

          k = 0.0896-0.9538 0.8240 (  2472 PWs)   bands (ev):

   -14.6060 -11.6245 -11.3755  -9.3599  -6.4554  -5.5823  -5.0837  -4.2355
    -3.0474  -1.1669  -0.1429   0.0154   0.9113   1.6534   2.4916   3.6116
     5.3966   6.2600   6.9658   7.6454

          k = 0.0900-0.9525-1.6477 (  2478 PWs)   bands (ev):

   -11.4774 -11.4587  -9.2198  -9.2154  -8.4421  -8.4363  -5.5949  -5.5628
    -1.7166  -1.6866   0.0103   0.0657   3.4444   3.4609   4.1406   4.2797
     4.2807   4.3859   5.1018   5.1094

          k =-0.5061 0.0416 0.0001 (  2488 PWs)   bands (ev):

   -16.0123 -12.4384 -12.1246  -9.2275  -5.9208  -5.5984  -5.0553  -2.4645
    -1.4985  -1.4258  -1.1808  -1.0551  -0.1856   1.2042   3.4005   5.2546
     6.8686   7.4405   9.1217   9.1542

          k =-0.5063 0.0411 0.8240 (  2457 PWs)   bands (ev):

   -14.8801 -11.5361 -11.1700  -8.8433  -6.4603  -5.1596  -4.8791  -4.8036
    -3.3947  -1.4004  -0.9827   0.2256   0.3209   1.8807   3.4219   3.8686
     4.3592   5.9814   7.3936   8.2232

          k =-0.5058 0.0424-1.6477 (  2468 PWs)   bands (ev):

   -11.6849 -11.6670  -9.2361  -9.2302  -8.2310  -8.2263  -5.0035  -4.9622
    -2.2240  -2.1951   0.8607   0.9066   2.3549   2.3699   4.3096   4.3284
     4.5015   4.5053   4.5649   4.6720

          k =-0.4164-0.9118 0.0001 (  2476 PWs)   bands (ev):

   -15.7263 -12.5991 -12.2769 -10.0546  -6.3364  -5.0542  -4.4503  -2.0515
    -1.5674  -1.3064  -0.9473  -0.2336   0.2676   0.9572   3.4465   5.0960
     5.1612   7.0023   7.6032   9.0926

          k =-0.4165-0.9122 0.8240 (  2471 PWs)   bands (ev):

   -14.6064 -11.5575 -11.4474  -9.3601  -6.4556  -5.5528  -5.0827  -4.2348
    -3.0412  -1.2800  -0.1186   0.1024   0.7452   1.7359   2.4757   3.7843
     5.4176   6.2795   6.9607   7.4702

          k =-0.4161-0.9110-1.6477 (  2444 PWs)   bands (ev):

   -11.4779 -11.4590  -9.2128  -9.2061  -8.4517  -8.4482  -5.5941  -5.5572
    -1.7150  -1.6918   0.0590   0.0789   3.4339   3.4682   3.9193   4.0123
     4.2473   4.3154   5.3139   5.5725

     the Fermi energy is     4.3745 ev

!    total energy              =     -90.14114979 Ry
     Harris-Foulkes estimate   =     -90.14114981 Ry
     estimated scf accuracy    <       0.00000004 Ry

     The total energy is the sum of the following terms:

     one-electron contribution =     -72.92507624 Ry
     hartree contribution      =      49.71439820 Ry
     xc contribution           =     -27.40273246 Ry
     ewald contribution        =     -39.52553549 Ry
     smearing contrib. (-TS)   =      -0.00220380 Ry

     convergence has been achieved in  14 iterations

     Forces acting on atoms (cartesian axes, Ry/au):

     atom    1 type  1   force =    -0.03380276   -0.05924634    0.00048890
     atom    2 type  1   force =    -0.03346522    0.00998273    0.00062452
     atom    3 type  1   force =     0.03275036   -0.00960632   -0.00041173
     atom    4 type  1   force =     0.03477134    0.05992027   -0.00027912
     atom    5 type  1   force =     0.01392572   -0.00586451   -0.00221193
     atom    6 type  1   force =    -0.04503540    0.02310684   -0.00001741
     atom    7 type  1   force =    -0.01583252    0.00678299    0.00156385
     atom    8 type  1   force =     0.04668848   -0.02507566    0.00024291

     Total force =     0.133194     Total SCF correction =     0.000252


     Computing stress (Cartesian axis) and pressure

          total   stress  (Ry/bohr**3)                   (kbar)     P=       84.12
   0.00026026   0.00036018   0.00000109           38.29       52.98        0.16
   0.00036018  -0.00045333   0.00000110           52.98      -66.69        0.16
   0.00000109   0.00000110   0.00190850            0.16        0.16      280.75


     BFGS Geometry Optimization

     number of scf cycles    =   1
     number of bfgs steps    =   0

     enthalpy new            =     -90.1411105021 Ry

     new trust radius        =       0.2294024271 bohr
     new conv_thr            =       0.0000010000 Ry

     new unit-cell volume =    602.52056 a.u.^3 (    89.28433 Ang^3 )
     density =      1.78544 g/cm^3

CELL_PARAMETERS (bohr)
  15.438683160   1.564450279   0.004124759
   0.745710715   8.050191378   0.004642097
   0.000835595   0.000530068   4.893857586

ATOMIC_POSITIONS (crystal)
C             0.9266761284        0.5815947834        0.6811763363
C             0.1652845233        0.1999946943        0.6811579281
C             0.9808064351        0.7106362625        0.1808526149
C             0.2206529212        0.3271623945        0.1808234654
C             0.5636943985        0.8418752503        0.7120555442
C             0.9840398472        0.2493951917        0.6813995394
C             0.5582472633        0.8471847543        0.2128636867
C             0.1626434830        0.6591816690        0.1803908851



     Writing output data file ./pp.save/
     NEW-OLD atomic charge density approx. for the potential
     extrapolated charge   33.30419, renormalised to   32.00000

     total cpu time spent up to now is        9.8 secs

     Self-consistent Calculation

     iteration #  1     ecut=    40.00 Ry     beta= 0.50
     Davidson diagonalization with overlap
     c_bands:  1 eigenvalues not converged
     ethr =  1.00E-06,  avg # of iterations = 11.7

     total cpu time spent up to now is       12.3 secs

     total energy              =     -89.13799142 Ry
     Harris-Foulkes estimate   =     -87.92193713 Ry
     estimated scf accuracy    <       1.23448808 Ry

     iteration #  2     ecut=    40.00 Ry     beta= 0.50
     Davidson diagonalization with overlap
     ethr =  3.86E-03,  avg # of iterations =  4.4

     total cpu time spent up to now is       13.4 secs

     total energy              =     -88.92156653 Ry
     Harris-Foulkes estimate   =     -92.86033660 Ry
     estimated scf accuracy    <      23.82863584 Ry

     iteration #  3     ecut=    40.00 Ry     beta= 0.50
     Davidson diagonalization with overlap
     ethr =  3.86E-03,  avg # of iterations =  3.0

     total cpu time spent up to now is       14.1 secs

     total energy              =     -90.19024587 Ry
     Harris-Foulkes estimate   =     -90.30861541 Ry
     estimated scf accuracy    <       1.12374409 Ry

     iteration #  4     ecut=    40.00 Ry     beta= 0.50
     Davidson diagonalization with overlap
     ethr =  3.51E-03,  avg # of iterations =  1.0

     total cpu time spent up to now is       14.5 secs

     total energy              =     -90.15560586 Ry
     Harris-Foulkes estimate   =     -90.21167524 Ry
     estimated scf accuracy    <       0.61929626 Ry

     iteration #  5     ecut=    40.00 Ry     beta= 0.50
     Davidson diagonalization with overlap
     ethr =  1.94E-03,  avg # of iterations =  1.0

     total cpu time spent up to now is       15.0 secs

     total energy              =     -90.15880244 Ry
     Harris-Foulkes estimate   =     -90.17135255 Ry
     estimated scf accuracy    <       0.14760473 Ry

     iteration #  6     ecut=    40.00 Ry     beta= 0.50
     Davidson diagonalization with overlap
     ethr =  4.61E-04,  avg # of iterations =  1.3

     total cpu time spent up to now is       15.4 secs

     total energy              =     -90.16455962 Ry
     Harris-Foulkes estimate   =     -90.16280542 Ry
     estimated scf accuracy    <       0.04194410 Ry

     iteration #  7     ecut=    40.00 Ry     beta= 0.50
     Davidson diagonalization with overlap
     ethr =  1.31E-04,  avg # of iterations =  3.4

     total cpu time spent up to now is       16.3 secs

     total energy              =     -90.16622967 Ry
     Harris-Foulkes estimate   =     -90.16966124 Ry
     estimated scf accuracy    <       0.06075559 Ry

     iteration #  8     ecut=    40.00 Ry     beta= 0.50
     Davidson diagonalization with overlap
     ethr =  1.31E-04,  avg # of iterations =  1.0

     total cpu time spent up to now is       16.7 secs

     total energy              =     -90.16458624 Ry
     Harris-Foulkes estimate   =     -90.16695428 Ry
     estimated scf accuracy    <       0.02417526 Ry

     iteration #  9     ecut=    40.00 Ry     beta= 0.50
     Davidson diagonalization with overlap
     ethr =  7.55E-05,  avg # of iterations =  1.0

     total cpu time spent up to now is       17.1 secs

     total energy              =     -90.16531355 Ry
     Harris-Foulkes estimate   =     -90.16547713 Ry
     estimated scf accuracy    <       0.00122614 Ry

     iteration # 10     ecut=    40.00 Ry     beta= 0.50
     Davidson diagonalization with overlap
     ethr =  3.83E-06,  avg # of iterations =  5.8

     total cpu time spent up to now is       18.2 secs

     total energy              =     -90.16486865 Ry
     Harris-Foulkes estimate   =     -90.16580295 Ry
     estimated scf accuracy    <       0.00907487 Ry

     iteration # 11     ecut=    40.00 Ry     beta= 0.50
     Davidson diagonalization with overlap
     ethr =  3.83E-06,  avg # of iterations =  3.1

     total cpu time spent up to now is       19.0 secs

     total energy              =     -90.16533740 Ry
     Harris-Foulkes estimate   =     -90.16541516 Ry
     estimated scf accuracy    <       0.00049339 Ry

     iteration # 12     ecut=    40.00 Ry     beta= 0.50
     Davidson diagonalization with overlap
     ethr =  1.54E-06,  avg # of iterations =  1.3

     total cpu time spent up to now is       19.6 secs

     total energy              =     -90.16537448 Ry
     Harris-Foulkes estimate   =     -90.16541706 Ry
     estimated scf accuracy    <       0.00052204 Ry

     iteration # 13     ecut=    40.00 Ry     beta= 0.50
     Davidson diagonalization with overlap
     ethr =  1.54E-06,  avg # of iterations =  1.0

     total cpu time spent up to now is       20.0 secs

     total energy              =     -90.16539148 Ry
     Harris-Foulkes estimate   =     -90.16539270 Ry
     estimated scf accuracy    <       0.00001461 Ry

     iteration # 14     ecut=    40.00 Ry     beta= 0.50
     Davidson diagonalization with overlap
     ethr =  4.57E-08,  avg # of iterations =  2.2

     total cpu time spent up to now is       20.7 secs

     total energy              =     -90.16539123 Ry
     Harris-Foulkes estimate   =     -90.16539275 Ry
     estimated scf accuracy    <       0.00001490 Ry

     iteration # 15     ecut=    40.00 Ry     beta= 0.50
     Davidson diagonalization with overlap
     ethr =  4.57E-08,  avg # of iterations =  1.1

     total cpu time spent up to now is       21.2 secs

     total energy              =     -90.16539156 Ry
     Harris-Foulkes estimate   =     -90.16539208 Ry
     estimated scf accuracy    <       0.00000312 Ry

     iteration # 16     ecut=    40.00 Ry     beta= 0.50
     Davidson diagonalization with overlap
     ethr =  9.75E-09,  avg # of iterations =  1.8

     total cpu time spent up to now is       21.7 secs

     End of self-consistent calculation

          k = 0.0000 0.0000 0.0000 (  2475 PWs)   bands (ev):

   -15.9385 -12.1615 -11.9247  -9.6346  -5.9719  -5.4410  -4.9133  -2.5665
    -1.8373  -1.8348  -1.0169  -0.9107  -0.2518   1.0300   3.2647   4.8089
     6.1411   6.4051   8.2125   8.4442

          k =-0.0002-0.0004 0.7864 (  2473 PWs)   bands (ev):

   -14.9182 -11.3732 -10.9877  -9.5236  -6.4203  -5.4126  -4.9570  -4.8669
    -3.1543  -1.6132  -1.3651  -0.0031   0.2986   1.7798   2.8312   3.6571
     4.0317   5.5540   6.6436   7.5631

          k = 0.0003 0.0009-1.5728 (  2478 PWs)   bands (ev):

   -12.1042 -12.0751  -9.2075  -9.2041  -8.1650  -8.1603  -5.1473  -5.1068
    -2.6163  -2.5866   0.5320   0.5705   2.0855   2.0917   3.4994   3.6049
     4.1348   4.1669   4.5238   4.5412

          k = 0.0978-0.9652 0.0001 (  2452 PWs)   bands (ev):

   -15.6562 -12.2474 -11.9816 -10.5956  -6.2173  -4.9111  -4.7921  -1.7668
    -1.6872  -1.3650  -1.1428  -0.2886   0.2022   0.6534   2.7877   4.5935
     5.2731   5.6195   7.4969   8.2872

          k = 0.0976-0.9656 0.7865 (  2472 PWs)   bands (ev):

   -14.6487 -11.3983 -11.0782 -10.1522  -6.4133  -5.5961  -5.1648  -4.7426
    -2.8730  -1.4974  -0.2343  -0.0066   0.6336   1.4979   2.0086   3.1693
     4.7861   6.3397   6.4819   7.1591

          k = 0.0981-0.9643-1.5727 (  2478 PWs)   bands (ev):

   -11.9127 -11.8827  -9.1963  -9.1956  -8.3047  -8.2977  -5.8536  -5.8243
    -2.1394  -2.1058  -0.2184  -0.1568   2.8438   2.8646   3.7795   3.8732
     3.9330   3.9997   4.9378   4.9508

          k =-0.5033 0.0466 0.0001 (  2488 PWs)   bands (ev):

   -15.9376 -12.2458 -11.8301  -9.6341  -5.9821  -5.4840  -4.9134  -2.7289
    -1.8378  -1.5039  -0.9861  -0.9059  -0.2516   0.9767   2.9789   4.7918
     6.1412   6.5500   8.2639   8.4440

          k =-0.5034 0.0462 0.7865 (  2457 PWs)   bands (ev):

   -14.9174 -11.4251 -10.9273  -9.5235  -6.4208  -5.4150  -4.9847  -4.8672
    -3.1537  -1.7551  -1.3067   0.3014   0.3449   1.6372   2.8463   3.4726
     3.9438   5.5452   6.7889   7.5719

          k =-0.5029 0.0475-1.5727 (  2468 PWs)   bands (ev):

   -12.1036 -12.0745  -9.2180  -9.2153  -8.1502  -8.1447  -5.1507  -5.1098
    -2.6183  -2.5865   0.4708   0.5201   2.0931   2.1002   3.9135   3.9573
     4.1405   4.1638   4.1892   4.3214

          k =-0.4055-0.9186 0.0002 (  2476 PWs)   bands (ev):

   -15.6566 -12.1357 -12.1013 -10.5950  -6.1786  -4.9115  -4.7706  -2.0317
    -1.6872  -1.4035  -0.9195  -0.2891   0.1197   0.6972   2.9994   4.5531
     5.3077   5.6192   7.2988   8.2874

          k =-0.4056-0.9190 0.7866 (  2471 PWs)   bands (ev):

   -14.6491 -11.3462 -11.1369 -10.1517  -6.4135  -5.5713  -5.1634  -4.7349
    -2.8667  -1.5735  -0.1121   0.0609   0.3201   1.5348   1.9985   3.4343
     4.8116   6.3555   6.4764   6.9580

          k =-0.4051-0.9177-1.5726 (  2444 PWs)   bands (ev):

   -11.9131 -11.8828  -9.1902  -9.1858  -8.3157  -8.3099  -5.8523  -5.8176
    -2.1371  -2.1126  -0.1603  -0.1407   2.8135   2.8767   3.6154   3.6655
     3.8422   3.9203   5.1378   5.3685

     the Fermi energy is     3.9944 ev

!    total energy              =     -90.16539139 Ry
     Harris-Foulkes estimate   =     -90.16539196 Ry
     estimated scf accuracy    <       0.00000067 Ry

     The total energy is the sum of the following terms:

     one-electron contribution =     -69.13553583 Ry
     hartree contribution      =      47.40538740 Ry
     xc contribution           =     -27.05280800 Ry
     ewald contribution        =     -41.38077857 Ry
     smearing contrib. (-TS)   =      -0.00165640 Ry

     convergence has been achieved in  16 iterations

     Forces acting on atoms (cartesian axes, Ry/au):

     atom    1 type  1   force =    -0.00044620    0.02098959    0.00007604
     atom    2 type  1   force =     0.00458079    0.02433281    0.00030731
     atom    3 type  1   force =    -0.00338933   -0.02289149   -0.00000771
     atom    4 type  1   force =     0.00022592   -0.02086206    0.00002868
     atom    5 type  1   force =     0.00739855   -0.00288151   -0.00922392
     atom    6 type  1   force =     0.00910221    0.00574384    0.00020429
     atom    7 type  1   force =    -0.00872372    0.00414978    0.00865421
     atom    8 type  1   force =    -0.00874823   -0.00858095   -0.00003890

     Total force =     0.051060     Total SCF correction =     0.001932


     Computing stress (Cartesian axis) and pressure

          total   stress  (Ry/bohr**3)                   (kbar)     P=      -53.51
  -0.00008445  -0.00008694  -0.00000215          -12.42      -12.79       -0.32
  -0.00008694  -0.00017233   0.00000403          -12.79      -25.35        0.59
  -0.00000215   0.00000403  -0.00083447           -0.32        0.59     -122.75


     number of scf cycles    =   2
     number of bfgs steps    =   1

     enthalpy old            =     -90.1411105021 Ry
     enthalpy new            =     -90.1653504276 Ry

     CASE: enthalpy_new < enthalpy_old

     new trust radius        =       0.0650814068 bohr
     new conv_thr            =       0.0000002433 Ry

     new unit-cell volume =    591.42024 a.u.^3 (    87.63944 Ang^3 )
     density =      1.81895 g/cm^3

CELL_PARAMETERS (bohr)
  15.415327407   1.538483445   0.003560523
   0.733554180   8.018100615   0.005223815
   0.000650375   0.000886581   4.828981974

ATOMIC_POSITIONS (crystal)
C             0.9265080063        0.5832778533        0.6811917974
C             0.1653421898        0.2022645407        0.6812129430
C             0.9808012326        0.7084919551        0.1808498503
C             0.2208118264        0.3254955429        0.1808273864
C             0.5641091296        0.8415170015        0.7104770917
C             0.9843587738        0.2499783093        0.6814332741
C             0.5577570314        0.8476757484        0.2143405135
C             0.1623568100        0.6583240487        0.1803871436



     Writing output data file ./pp.save/
     NEW-OLD atomic charge density approx. for the potential
     extrapolated charge   31.39940, renormalised to   32.00000

     total cpu time spent up to now is       21.8 secs

     Self-consistent Calculation

     iteration #  1     ecut=    40.00 Ry     beta= 0.50
     Davidson diagonalization with overlap
     ethr =  1.00E-06,  avg # of iterations =  8.2

     total cpu time spent up to now is       23.9 secs

     total energy              =     -89.64613400 Ry
     Harris-Foulkes estimate   =     -91.36937942 Ry
     estimated scf accuracy    <       0.66540217 Ry

     iteration #  2     ecut=    40.00 Ry     beta= 0.50
     Davidson diagonalization with overlap
     ethr =  2.08E-03,  avg # of iterations =  5.8

     total cpu time spent up to now is       25.3 secs

     total energy              =     -89.21534329 Ry
     Harris-Foulkes estimate   =     -91.32628008 Ry
     estimated scf accuracy    <      12.44923913 Ry

     iteration #  3     ecut=    40.00 Ry     beta= 0.50
     Davidson diagonalization with overlap
     ethr =  2.08E-03,  avg # of iterations =  3.3

     total cpu time spent up to now is       26.2 secs

     total energy              =     -90.20486309 Ry
     Harris-Foulkes estimate   =     -90.27169939 Ry
     estimated scf accuracy    <       1.00678668 Ry

     iteration #  4     ecut=    40.00 Ry     beta= 0.50
     Davidson diagonalization with overlap
     ethr =  2.08E-03,  avg # of iterations =  1.0

     total cpu time spent up to now is       26.8 secs

     total energy              =     -90.17799934 Ry
     Harris-Foulkes estimate   =     -90.21416352 Ry
     estimated scf accuracy    <       0.55055031 Ry

     iteration #  5     ecut=    40.00 Ry     beta= 0.50
     Davidson diagonalization with overlap
     ethr =  1.72E-03,  avg # of iterations =  1.0

     total cpu time spent up to now is       27.3 secs

     total energy              =     -90.18077914 Ry
     Harris-Foulkes estimate   =     -90.18527812 Ry
     estimated scf accuracy    <       0.20820924 Ry

     iteration #  6     ecut=    40.00 Ry     beta= 0.50
     Davidson diagonalization with overlap
     ethr =  6.51E-04,  avg # of iterations =  1.8

     total cpu time spent up to now is       27.9 secs

     total energy              =     -90.17085005 Ry
     Harris-Foulkes estimate   =     -90.18230878 Ry
     estimated scf accuracy    <       0.18689727 Ry

     iteration #  7     ecut=    40.00 Ry     beta= 0.50
     Davidson diagonalization with overlap
     ethr =  5.84E-04,  avg # of iterations =  1.0

     total cpu time spent up to now is       28.4 secs

     total energy              =     -90.16996287 Ry
     Harris-Foulkes estimate   =     -90.17349796 Ry
     estimated scf accuracy    <       0.05810483 Ry

     iteration #  8     ecut=    40.00 Ry     beta= 0.50
     Davidson diagonalization with overlap
     ethr =  1.82E-04,  avg # of iterations =  3.6

     total cpu time spent up to now is       29.4 secs

     total energy              =     -90.17215927 Ry
     Harris-Foulkes estimate   =     -90.17155543 Ry
     estimated scf accuracy    <       0.00635579 Ry

     iteration #  9     ecut=    40.00 Ry     beta= 0.50
     Davidson diagonalization with overlap
     ethr =  1.99E-05,  avg # of iterations =  2.8

     total cpu time spent up to now is       30.2 secs

     total energy              =     -90.17149639 Ry
     Harris-Foulkes estimate   =     -90.17271212 Ry
     estimated scf accuracy    <       0.03018675 Ry

     iteration # 10     ecut=    40.00 Ry     beta= 0.50
     Davidson diagonalization with overlap
     ethr =  1.99E-05,  avg # of iterations =  1.0

     total cpu time spent up to now is       30.8 secs

     total energy              =     -90.17046950 Ry
     Harris-Foulkes estimate   =     -90.17173733 Ry
     estimated scf accuracy    <       0.01120661 Ry

     iteration # 11     ecut=    40.00 Ry     beta= 0.50
     Davidson diagonalization with overlap
     ethr =  1.99E-05,  avg # of iterations =  1.2

     total cpu time spent up to now is       31.4 secs

     total energy              =     -90.17127734 Ry
     Harris-Foulkes estimate   =     -90.17128647 Ry
     estimated scf accuracy    <       0.00139779 Ry

     iteration # 12     ecut=    40.00 Ry     beta= 0.50
     Davidson diagonalization with overlap
     ethr =  4.37E-06,  avg # of iterations =  4.7

     total cpu time spent up to now is       32.6 secs

     total energy              =     -90.17122701 Ry
     Harris-Foulkes estimate   =     -90.17129095 Ry
     estimated scf accuracy    <       0.00136244 Ry

     iteration # 13     ecut=    40.00 Ry     beta= 0.50
     Davidson diagonalization with overlap
     ethr =  4.26E-06,  avg # of iterations =  1.0

     total cpu time spent up to now is       33.2 secs

     total energy              =     -90.17121442 Ry
     Harris-Foulkes estimate   =     -90.17124615 Ry
     estimated scf accuracy    <       0.00027909 Ry

     iteration # 14     ecut=    40.00 Ry     beta= 0.50
     Davidson diagonalization with overlap
     ethr =  8.72E-07,  avg # of iterations =  1.2

     total cpu time spent up to now is       33.9 secs

     total energy              =     -90.17123373 Ry
     Harris-Foulkes estimate   =     -90.17123637 Ry
     estimated scf accuracy    <       0.00003384 Ry

     iteration # 15     ecut=    40.00 Ry     beta= 0.50
     Davidson diagonalization with overlap
     ethr =  1.06E-07,  avg # of iterations =  1.8

     total cpu time spent up to now is       34.6 secs

     total energy              =     -90.17123552 Ry
     Harris-Foulkes estimate   =     -90.17123564 Ry
     estimated scf accuracy    <       0.00000110 Ry

     iteration # 16     ecut=    40.00 Ry     beta= 0.50
     Davidson diagonalization with overlap
     ethr =  3.45E-09,  avg # of iterations =  2.8

     total cpu time spent up to now is       35.6 secs

     total energy              =     -90.17123559 Ry
     Harris-Foulkes estimate   =     -90.17123569 Ry
     estimated scf accuracy    <       0.00000135 Ry

     iteration # 17     ecut=    40.00 Ry     beta= 0.50
     Davidson diagonalization with overlap
     ethr =  3.45E-09,  avg # of iterations =  1.1

     total cpu time spent up to now is       36.2 secs

     total energy              =     -90.17123556 Ry
     Harris-Foulkes estimate   =     -90.17123565 Ry
     estimated scf accuracy    <       0.00000079 Ry

     iteration # 18     ecut=    40.00 Ry     beta= 0.50
     Davidson diagonalization with overlap
     ethr =  2.48E-09,  avg # of iterations =  1.3

     total cpu time spent up to now is       36.9 secs

     End of self-consistent calculation

          k = 0.0000 0.0000 0.0000 (  2475 PWs)   bands (ev):

   -16.0221 -12.1322 -12.0124  -9.5101  -5.8992  -5.4383  -4.8664  -2.4851
    -1.7995  -1.7558  -0.9959  -0.8609  -0.2218   1.1570   3.3670   5.0328
     6.5078   6.5890   8.5035   8.7177

          k =-0.0001-0.0005 0.7969 (  2473 PWs)   bands (ev):

   -14.9698 -11.3310 -11.0499  -9.3498  -6.3513  -5.2686  -4.9194  -4.8903
    -3.1839  -1.5237  -1.2534   0.0671   0.3586   1.8983   3.0190   3.8651
     4.1789   5.7373   6.8751   7.8558

          k = 0.0003 0.0010-1.5939 (  2478 PWs)   bands (ev):

   -12.0452 -12.0225  -9.1416  -9.1346  -8.1707  -8.1645  -5.0919  -5.0482
    -2.5010  -2.4752   0.6498   0.6893   2.2338   2.2374   3.6442   3.7828
     4.2563   4.4033   4.7063   4.7419

          k = 0.0967-0.9688 0.0002 (  2452 PWs)   bands (ev):

   -15.7437 -12.2798 -12.0012 -10.4999  -6.2030  -4.8643  -4.7177  -1.6951
    -1.6148  -1.3391  -1.1121  -0.2565   0.2903   0.8472   2.8711   4.8406
     5.4042   5.9995   7.6762   8.5786

          k = 0.0966-0.9693 0.7971 (  2472 PWs)   bands (ev):

   -14.7037 -11.3790 -11.1157  -9.9994  -6.3443  -5.5388  -5.1793  -4.5991
    -2.9215  -1.3803  -0.1372   0.0632   0.7427   1.6570   2.1704   3.2661
     5.0413   6.4635   6.7507   7.3686

          k = 0.0970-0.9678-1.5937 (  2478 PWs)   bands (ev):

   -11.8501 -11.8272  -9.1318  -9.1255  -8.3064  -8.2976  -5.8013  -5.7670
    -2.0309  -2.0016  -0.1221  -0.0639   3.0431   3.0660   3.9290   4.0308
     4.0948   4.2093   5.0866   5.1216

          k =-0.5039 0.0461 0.0001 (  2488 PWs)   bands (ev):

   -16.0213 -12.2462 -11.8884  -9.5094  -5.9121  -5.4795  -4.8666  -2.6477
    -1.7563  -1.4496  -0.9644  -0.8823  -0.2216   1.1067   3.0792   5.0206
     6.5079   6.7441   8.5615   9.9512

          k =-0.5040 0.0456 0.7970 (  2457 PWs)   bands (ev):

   -14.9690 -11.3955 -10.9772  -9.3496  -6.3516  -5.2729  -4.9453  -4.8911
    -3.1831  -1.6648  -1.1904   0.3608   0.4066   1.7537   3.0341   3.6456
     4.1275   5.7304   7.0311   7.8633

          k =-0.5036 0.0471-1.5938 (  2468 PWs)   bands (ev):

   -12.0445 -12.0219  -9.1528  -9.1461  -8.1557  -8.1486  -5.0950  -5.0510
    -2.5031  -2.4754   0.5919   0.6407   2.2374   2.2471   4.0469   4.1325
     4.2777   4.3460   4.4121   4.5173

          k =-0.4072-0.9227 0.0002 (  2476 PWs)   bands (ev):

   -15.7442 -12.1917 -12.0973 -10.4991  -6.1629  -4.8647  -4.6982  -1.9773
    -1.6149  -1.3837  -0.8630  -0.2570   0.2165   0.8874   3.0750   4.7977
     5.4398   5.9991   7.4696   8.5787

          k =-0.4073-0.9232 0.7972 (  2471 PWs)   bands (ev):

   -14.7040 -11.3041 -11.1971  -9.9988  -6.3446  -5.5126  -5.1779  -4.5928
    -2.9159  -1.4610  -0.0485   0.1469   0.4565   1.6961   2.1598   3.5241
     5.0677   6.4799   6.7457   7.1597

          k =-0.4069-0.9217-1.5937 (  2444 PWs)   bands (ev):

   -11.8505 -11.8273  -9.1238  -9.1165  -8.3173  -8.3107  -5.8001  -5.7607
    -2.0286  -2.0079  -0.0670  -0.0483   3.0096   3.0768   3.7600   3.8522
     3.9796   4.1410   5.3006   5.5244

     the Fermi energy is     4.1655 ev

!    total energy              =     -90.17123554 Ry
     Harris-Foulkes estimate   =     -90.17123562 Ry
     estimated scf accuracy    <       0.00000009 Ry

     The total energy is the sum of the following terms:

     one-electron contribution =     -70.20399159 Ry
     hartree contribution      =      48.10958660 Ry
     xc contribution           =     -27.18816039 Ry
     ewald contribution        =     -40.88687504 Ry
     smearing contrib. (-TS)   =      -0.00179512 Ry

     convergence has been achieved in  18 iterations

     Forces acting on atoms (cartesian axes, Ry/au):

     atom    1 type  1   force =    -0.01247786    0.01161736    0.00069591
     atom    2 type  1   force =     0.00110819    0.00936171    0.00134622
     atom    3 type  1   force =    -0.00124406   -0.00784388   -0.00081997
     atom    4 type  1   force =     0.01300616   -0.01280310   -0.00082462
     atom    5 type  1   force =     0.00947783   -0.00366687   -0.03539919
     atom    6 type  1   force =    -0.00337517   -0.00502762    0.00070587
     atom    7 type  1   force =    -0.01058819    0.00482358    0.03485354
     atom    8 type  1   force =     0.00409311    0.00353882   -0.00055777

     Total force =     0.059604     Total SCF correction =     0.000408


     Computing stress (Cartesian axis) and pressure

          total   stress  (Ry/bohr**3)                   (kbar)     P=       -5.51
   0.00005317  -0.00002850  -0.00001765            7.82       -4.19       -2.60
  -0.00002850  -0.00002739   0.00000930           -4.19       -4.03        1.37
  -0.00001765   0.00000930  -0.00013814           -2.60        1.37      -20.32


     number of scf cycles    =   3
     number of bfgs steps    =   2

     enthalpy old            =     -90.1653504276 Ry
     enthalpy new            =     -90.1711953365 Ry

     CASE: enthalpy_new < enthalpy_old

     new trust radius        =       0.0588726587 bohr
     new conv_thr            =       0.0000003540 Ry

     new unit-cell volume =    583.43344 a.u.^3 (    86.45592 Ang^3 )
     density =      1.84385 g/cm^3

CELL_PARAMETERS (bohr)
  15.431564172   1.510238051  -0.005688386
   0.721533920   7.988033968   0.007868902
  -0.002226968   0.002563264   4.775271131

ATOMIC_POSITIONS (crystal)
C             0.9251558565        0.5861817310        0.6814130689
C             0.1653485684        0.2051953640        0.6816534856
C             0.9808024317        0.7058908172        0.1805998537
C             0.2222154640        0.3223991785        0.1805803169
C             0.5652588256        0.8405314701        0.6988741882
C             0.9841874886        0.2496402097        0.6816663383
C             0.5564514081        0.8489520466        0.2257147464
C             0.1626249572        0.6582341829        0.1802180020



     Writing output data file ./pp.save/
     NEW-OLD atomic charge density approx. for the potential
     extrapolated charge   31.56195, renormalised to   32.00000

     total cpu time spent up to now is       37.0 secs

     Self-consistent Calculation

     iteration #  1     ecut=    40.00 Ry     beta= 0.50
     Davidson diagonalization with overlap
     ethr =  1.00E-06,  avg # of iterations =  9.2

     total cpu time spent up to now is       40.2 secs

     total energy              =     -90.05576932 Ry
     Harris-Foulkes estimate   =     -91.03581125 Ry
     estimated scf accuracy    <       0.14805012 Ry

     iteration #  2     ecut=    40.00 Ry     beta= 0.50
     Davidson diagonalization with overlap
     ethr =  4.63E-04,  avg # of iterations =  4.5

     total cpu time spent up to now is       41.8 secs

     total energy              =     -90.11351265 Ry
     Harris-Foulkes estimate   =     -90.45398047 Ry
     estimated scf accuracy    <       1.71714005 Ry

     iteration #  3     ecut=    40.00 Ry     beta= 0.50
     Davidson diagonalization with overlap
     ethr =  4.63E-04,  avg # of iterations =  3.2

     total cpu time spent up to now is       43.1 secs

     total energy              =     -90.17660279 Ry
     Harris-Foulkes estimate   =     -90.19543345 Ry
     estimated scf accuracy    <       0.16706932 Ry

     iteration #  4     ecut=    40.00 Ry     beta= 0.50
     Davidson diagonalization with overlap
     ethr =  4.63E-04,  avg # of iterations =  1.0

     total cpu time spent up to now is       43.8 secs

     total energy              =     -90.17344127 Ry
     Harris-Foulkes estimate   =     -90.18157633 Ry
     estimated scf accuracy    <       0.03914723 Ry

     iteration #  5     ecut=    40.00 Ry     beta= 0.50
     Davidson diagonalization with overlap
     ethr =  1.22E-04,  avg # of iterations =  2.2

     total cpu time spent up to now is       44.8 secs

     total energy              =     -90.17472134 Ry
     Harris-Foulkes estimate   =     -90.17676008 Ry
     estimated scf accuracy    <       0.00630478 Ry

     iteration #  6     ecut=    40.00 Ry     beta= 0.50
     Davidson diagonalization with overlap
     ethr =  1.97E-05,  avg # of iterations =  4.2

     total cpu time spent up to now is       46.4 secs

     total energy              =     -90.17545504 Ry
     Harris-Foulkes estimate   =     -90.17637312 Ry
     estimated scf accuracy    <       0.00372379 Ry

     iteration #  7     ecut=    40.00 Ry     beta= 0.50
     Davidson diagonalization with overlap
     ethr =  1.16E-05,  avg # of iterations =  1.7

     total cpu time spent up to now is       47.4 secs

     total energy              =     -90.17534430 Ry
     Harris-Foulkes estimate   =     -90.17613967 Ry
     estimated scf accuracy    <       0.00285440 Ry

     iteration #  8     ecut=    40.00 Ry     beta= 0.50
     Davidson diagonalization with overlap
     ethr =  8.92E-06,  avg # of iterations =  1.6

     total cpu time spent up to now is       48.3 secs

     total energy              =     -90.17586306 Ry
     Harris-Foulkes estimate   =     -90.17615366 Ry
     estimated scf accuracy    <       0.00183650 Ry

     iteration #  9     ecut=    40.00 Ry     beta= 0.50
     Davidson diagonalization with overlap
     ethr =  5.74E-06,  avg # of iterations =  1.0

     total cpu time spent up to now is       50.0 secs

     total energy              =     -90.17591043 Ry
     Harris-Foulkes estimate   =     -90.17594545 Ry
     estimated scf accuracy    <       0.00018903 Ry

     iteration # 10     ecut=    40.00 Ry     beta= 0.50
     Davidson diagonalization with overlap
     ethr =  5.91E-07,  avg # of iterations =  2.0

     total cpu time spent up to now is       51.3 secs

     total energy              =     -90.17593373 Ry
     Harris-Foulkes estimate   =     -90.17593575 Ry
     estimated scf accuracy    <       0.00000850 Ry

     iteration # 11     ecut=    40.00 Ry     beta= 0.50
     Davidson diagonalization with overlap
     ethr =  2.66E-08,  avg # of iterations =  2.8

     total cpu time spent up to now is       52.6 secs

     total energy              =     -90.17593501 Ry
     Harris-Foulkes estimate   =     -90.17593538 Ry
     estimated scf accuracy    <       0.00000091 Ry

     iteration # 12     ecut=    40.00 Ry     beta= 0.50
     Davidson diagonalization with overlap
     ethr =  2.86E-09,  avg # of iterations =  3.0

     total cpu time spent up to now is       54.2 secs

     total energy              =     -90.17593523 Ry
     Harris-Foulkes estimate   =     -90.17593537 Ry
     estimated scf accuracy    <       0.00000059 Ry

     iteration # 13     ecut=    40.00 Ry     beta= 0.50
     Davidson diagonalization with overlap
     ethr =  1.86E-09,  avg # of iterations =  1.5

     total cpu time spent up to now is       55.3 secs

     End of self-consistent calculation

          k = 0.0000 0.0000 0.0000 (  2475 PWs)   bands (ev):

   -16.0886 -12.1715 -11.9007  -9.3859  -5.8854  -5.4906  -4.5653  -2.4507
    -1.7634  -1.7205  -0.7934  -0.7638  -0.2802   1.1810   3.3306   5.2458
     6.5994   6.8109   8.7193   8.8530

          k = 0.0004-0.0008 0.8059 (  2473 PWs)   bands (ev):

   -15.0089 -11.1892 -11.0903  -9.1718  -6.0358  -5.1819  -4.9547  -4.9352
    -3.2833  -1.4836  -1.1861   0.1984   0.5949   1.9224   3.1465   3.9122
     4.2946   5.8051   6.9457   8.0331

          k =-0.0008 0.0017-1.6118 (  2478 PWs)   bands (ev):

   -11.9934 -11.9663  -9.1405  -8.5607  -8.2636  -8.2369  -5.0737  -5.0222
    -2.4185  -2.3926   0.6935   0.7503   2.2910   2.3033   3.5160   4.0708
     4.0939   4.7167   5.0405   5.3874

          k = 0.0951-0.9721 0.0006 (  2452 PWs)   bands (ev):

   -15.8098 -12.3612 -11.8269 -10.4320  -6.2745  -4.6861  -4.5629  -1.6735
    -1.5877  -1.1469  -0.9792  -0.3120   0.3517   1.0293   2.8356   5.0137
     5.3922   6.3107   7.6786   8.7350

          k = 0.0955-0.9730 0.8065 (  2472 PWs)   bands (ev):

   -14.7422 -11.3666 -11.0096  -9.8680  -6.0281  -5.5674  -5.2211  -4.5078
    -3.0413  -1.3155   0.0103   0.2815   0.8672   1.7716   2.2844   3.2424
     5.1580   6.4717   6.9403   7.3857

          k = 0.0944-0.9705-1.6113 (  2478 PWs)   bands (ev):

   -11.7911 -11.7663  -9.1320  -8.5846  -8.3622  -8.3529  -5.7970  -5.7534
    -1.9591  -1.9305  -0.1129  -0.0565   3.1658   3.2039   3.7868   3.8568
     4.5524   4.9114   5.2070   5.4930

          k =-0.5032 0.0455-0.0003 (  2488 PWs)   bands (ev):

   -16.0879 -12.2461 -11.8160  -9.3851  -5.9068  -5.5214  -4.5657  -2.6022
    -1.7210  -1.4461  -0.7802  -0.7427  -0.2800   1.1346   3.0260   5.2392
     6.7654   6.8110   8.7789   8.8541

          k =-0.5028 0.0446 0.8057 (  2457 PWs)   bands (ev):

   -15.0082 -11.2960 -10.9752  -9.1716  -6.0356  -5.1939  -4.9676  -4.9411
    -3.2823  -1.6153  -1.1252   0.5362   0.6089   1.7676   3.1632   3.6390
     4.2807   5.8001   7.1167   8.0376

          k =-0.5040 0.0471-1.6121 (  2468 PWs)   bands (ev):

   -11.9929 -11.9657  -9.1523  -8.5965  -8.2245  -8.2202  -5.0767  -5.0250
    -2.4208  -2.3933   0.6447   0.7015   2.2936   2.3100   3.8353   4.0772
     4.3768   4.4217   4.9927   5.3232

          k =-0.4081-0.9267 0.0003 (  2476 PWs)   bands (ev):

   -15.8102 -12.3304 -11.8663 -10.4309  -6.2340  -4.6703  -4.5627  -1.9432
    -1.5878  -1.1828  -0.7458  -0.3124   0.2772   1.0678   3.0432   4.9669
     5.4273   6.3103   7.4614   8.7351

          k =-0.4077-0.9275 0.8062 (  2471 PWs)   bands (ev):

   -14.7425 -11.3229 -11.0602  -9.8671  -6.0293  -5.5397  -5.2191  -4.5034
    -3.0368  -1.3948   0.1609   0.2863   0.5902   1.8136   2.2733   3.5100
     5.1855   6.4872   6.9365   7.1657

          k =-0.4088-0.9250-1.6115 (  2444 PWs)   bands (ev):

   -11.7914 -11.7664  -9.1227  -8.5425  -8.4011  -8.3725  -5.7957  -5.7469
    -1.9567  -1.9361  -0.0629  -0.0409   3.1071   3.2106   3.6343   3.8157
     4.2829   5.0113   5.3443   5.8448

     the Fermi energy is     4.3039 ev

!    total energy              =     -90.17593503 Ry
     Harris-Foulkes estimate   =     -90.17593529 Ry
     estimated scf accuracy    <       0.00000031 Ry

     The total energy is the sum of the following terms:

     one-electron contribution =     -70.60648541 Ry
     hartree contribution      =      48.45966201 Ry
     xc contribution           =     -27.30246971 Ry
     ewald contribution        =     -40.72656458 Ry
     smearing contrib. (-TS)   =      -0.00007735 Ry

     convergence has been achieved in  13 iterations

     Forces acting on atoms (cartesian axes, Ry/au):

     atom    1 type  1   force =    -0.00819366   -0.01203405    0.00160339
     atom    2 type  1   force =    -0.00538964   -0.00636748    0.00428819
     atom    3 type  1   force =     0.00402774    0.00728995   -0.00413247
     atom    4 type  1   force =     0.00907433    0.01169908   -0.00159273
     atom    5 type  1   force =     0.00438062   -0.00177552    0.03266251
     atom    6 type  1   force =    -0.01269966   -0.00312199    0.00307779
     atom    7 type  1   force =    -0.00428990    0.00193574   -0.03260409
     atom    8 type  1   force =     0.01309016    0.00237427   -0.00330259

     Total force =     0.056156     Total SCF correction =     0.000562


     Computing stress (Cartesian axis) and pressure

          total   stress  (Ry/bohr**3)                   (kbar)     P=       37.62
   0.00012566   0.00005808  -0.00004254           18.48        8.54       -6.26
   0.00005808   0.00005361   0.00002058            8.54        7.89        3.03
  -0.00004254   0.00002058   0.00058795           -6.26        3.03       86.49


     number of scf cycles    =   4
     number of bfgs steps    =   3

     enthalpy old            =     -90.1711953365 Ry
     enthalpy new            =     -90.1758953718 Ry

     CASE: enthalpy_new < enthalpy_old

     new trust radius        =       0.0370728885 bohr
     new conv_thr            =       0.0000003266 Ry

     new unit-cell volume =    589.31973 a.u.^3 (    87.32817 Ang^3 )
     density =      1.82543 g/cm^3

CELL_PARAMETERS (bohr)
  15.449910951   1.524372317  -0.011263345
   0.728991167   7.998989465   0.009116101
  -0.004003881   0.003382159   4.811864155

ATOMIC_POSITIONS (crystal)
C             0.9251948069        0.5851474974        0.6815369993
C             0.1652228647        0.2043897750        0.6820140437
C             0.9808849743        0.7066994325        0.1802216796
C             0.2221940380        0.3234452711        0.1804624682
C             0.5651908967        0.8405869148        0.7043272712
C             0.9838803563        0.2495748288        0.6819421945
C             0.5565491453        0.8488551794        0.2203075491
C             0.1629279178        0.6583261010        0.1799077944



     Writing output data file ./pp.save/
     NEW-OLD atomic charge density approx. for the potential
     extrapolated charge   32.31962, renormalised to   32.00000

     total cpu time spent up to now is       55.4 secs

     Self-consistent Calculation

     iteration #  1     ecut=    40.00 Ry     beta= 0.50
     Davidson diagonalization with overlap
     ethr =  1.00E-06,  avg # of iterations =  6.7

     total cpu time spent up to now is       58.7 secs

     total energy              =     -90.07911506 Ry
     Harris-Foulkes estimate   =     -89.58247837 Ry
     estimated scf accuracy    <       0.11977691 Ry

     iteration #  2     ecut=    40.00 Ry     beta= 0.50
     Davidson diagonalization with overlap
     ethr =  3.74E-04,  avg # of iterations =  3.7

     total cpu time spent up to now is       60.7 secs

     total energy              =     -90.13864678 Ry
     Harris-Foulkes estimate   =     -90.46758633 Ry
     estimated scf accuracy    <       1.85381340 Ry

     iteration #  3     ecut=    40.00 Ry     beta= 0.50
     Davidson diagonalization with overlap
     ethr =  3.74E-04,  avg # of iterations =  3.1

     total cpu time spent up to now is       62.5 secs

     total energy              =     -90.17819727 Ry
     Harris-Foulkes estimate   =     -90.20503162 Ry
     estimated scf accuracy    <       0.45753395 Ry

     iteration #  4     ecut=    40.00 Ry     beta= 0.50
     Davidson diagonalization with overlap
     ethr =  3.74E-04,  avg # of iterations =  1.0

     total cpu time spent up to now is       63.5 secs

     total energy              =     -90.16649642 Ry
     Harris-Foulkes estimate   =     -90.18357329 Ry
     estimated scf accuracy    <       0.14567885 Ry

     iteration #  5     ecut=    40.00 Ry     beta= 0.50
     Davidson diagonalization with overlap
     ethr =  3.74E-04,  avg # of iterations =  1.5

     total cpu time spent up to now is       64.7 secs

     total energy              =     -90.17591732 Ry
     Harris-Foulkes estimate   =     -90.17688159 Ry
     estimated scf accuracy    <       0.00787997 Ry

     iteration #  6     ecut=    40.00 Ry     beta= 0.50
     Davidson diagonalization with overlap
     ethr =  2.46E-05,  avg # of iterations =  3.2

     total cpu time spent up to now is       66.4 secs

     total energy              =     -90.17627436 Ry
     Harris-Foulkes estimate   =     -90.17652535 Ry
     estimated scf accuracy    <       0.00079192 Ry

     iteration #  7     ecut=    40.00 Ry     beta= 0.50
     Davidson diagonalization with overlap
     ethr =  2.47E-06,  avg # of iterations =  3.0

     total cpu time spent up to now is       68.2 secs

     total energy              =     -90.17648983 Ry
     Harris-Foulkes estimate   =     -90.17658087 Ry
     estimated scf accuracy    <       0.00287205 Ry

     iteration #  8     ecut=    40.00 Ry     beta= 0.50
     Davidson diagonalization with overlap
     ethr =  2.47E-06,  avg # of iterations =  1.0

     total cpu time spent up to now is       69.3 secs

     total energy              =     -90.17634270 Ry
     Harris-Foulkes estimate   =     -90.17651598 Ry
     estimated scf accuracy    <       0.00204310 Ry

     iteration #  9     ecut=    40.00 Ry     beta= 0.50
     Davidson diagonalization with overlap
     ethr =  2.47E-06,  avg # of iterations =  1.0

     total cpu time spent up to now is       70.4 secs

     total energy              =     -90.17640482 Ry
     Harris-Foulkes estimate   =     -90.17641629 Ry
     estimated scf accuracy    <       0.00005174 Ry

     iteration # 10     ecut=    40.00 Ry     beta= 0.50
     Davidson diagonalization with overlap
     ethr =  1.62E-07,  avg # of iterations =  2.8

     total cpu time spent up to now is       72.1 secs

     total energy              =     -90.17641800 Ry
     Harris-Foulkes estimate   =     -90.17642087 Ry
     estimated scf accuracy    <       0.00007850 Ry

     iteration # 11     ecut=    40.00 Ry     beta= 0.50
     Davidson diagonalization with overlap
     ethr =  1.62E-07,  avg # of iterations =  1.0

     total cpu time spent up to now is       73.2 secs

     total energy              =     -90.17641390 Ry
     Harris-Foulkes estimate   =     -90.17641874 Ry
     estimated scf accuracy    <       0.00004257 Ry

     iteration # 12     ecut=    40.00 Ry     beta= 0.50
     Davidson diagonalization with overlap
     ethr =  1.33E-07,  avg # of iterations =  1.2

     total cpu time spent up to now is       74.4 secs

     total energy              =     -90.17641656 Ry
     Harris-Foulkes estimate   =     -90.17641671 Ry
     estimated scf accuracy    <       0.00000090 Ry

     iteration # 13     ecut=    40.00 Ry     beta= 0.50
     Davidson diagonalization with overlap
     ethr =  2.81E-09,  avg # of iterations =  2.7

     total cpu time spent up to now is       76.1 secs

     End of self-consistent calculation

          k = 0.0000 0.0000 0.0000 (  2475 PWs)   bands (ev):

   -16.0149 -12.0872 -12.0392  -9.4186  -5.8793  -5.4526  -4.7335  -2.4705
    -1.7748  -1.7385  -0.9052  -0.8240  -0.2631   1.1425   3.3095   5.1495
     6.5486   6.6267   8.5691   8.7313

          k = 0.0007-0.0010 0.7998 (  2473 PWs)   bands (ev):

   -14.9535 -11.2333 -11.1196  -9.2390  -6.2240  -5.2187  -4.9388  -4.8948
    -3.2250  -1.5098  -1.2147   0.1194   0.4543   1.8829   3.0727   3.8619
     4.2292   5.7335   6.8612   7.8983

          k =-0.0014 0.0019-1.5996 (  2478 PWs)   bands (ev):

   -12.0084 -11.9635  -9.1214  -8.9295  -8.2332  -8.1845  -5.0709  -5.0191
    -2.4561  -2.4250   0.6566   0.7245   2.2413   2.2630   3.5644   3.9107
     4.1248   4.6876   4.7483   4.9275

          k = 0.0958-0.9710 0.0008 (  2452 PWs)   bands (ev):

   -15.7346 -12.2948 -11.9419 -10.4602  -6.2361  -4.7313  -4.6966  -1.6778
    -1.6009  -1.2608  -1.0506  -0.2952   0.3316   0.9583   2.8156   4.9072
     5.3714   6.1181   7.6303   8.6005

          k = 0.0965-0.9719 0.8005 (  2472 PWs)   bands (ev):

   -14.6854 -11.3431 -11.0976  -9.9327  -6.2169  -5.5556  -5.1848  -4.5570
    -2.9795  -1.3441  -0.0734   0.1517   0.8014   1.7243   2.2208   3.2206
     5.0507   6.4504   6.8292   7.3201

          k = 0.0944-0.9690-1.5988 (  2478 PWs)   bands (ev):

   -11.8071 -11.7660  -9.1121  -8.9238  -8.3544  -8.3063  -5.7987  -5.7558
    -1.9940  -1.9631  -0.1285  -0.0684   3.0895   3.1166   3.8262   3.9055
     4.3196   4.5391   5.0759   5.2530

          k =-0.5027 0.0458-0.0005 (  2488 PWs)   bands (ev):

   -16.0141 -12.2272 -11.8892  -9.4180  -5.8973  -5.4873  -4.7337  -2.6281
    -1.7390  -1.4392  -0.8778  -0.8282  -0.2630   1.0941   3.0072   5.1411
     6.6267   6.7141   8.6304   8.7324

          k =-0.5020 0.0448 0.7993 (  2457 PWs)   bands (ev):

   -14.9527 -11.3359 -11.0088  -9.2389  -6.2243  -5.2261  -4.9599  -4.8967
    -3.2241  -1.6464  -1.1537   0.4511   0.4743   1.7322   3.0889   3.6003
     4.2042   5.7283   7.0339   7.9032

          k =-0.5041 0.0478-1.6000 (  2468 PWs)   bands (ev):

   -12.0078 -11.9629  -9.1330  -8.9453  -8.2132  -8.1688  -5.0740  -5.0219
    -2.4582  -2.4257   0.6068   0.6729   2.2459   2.2692   3.9050   4.1139
     4.2876   4.3593   4.6805   4.8261

          k =-0.4069-0.9251 0.0003 (  2476 PWs)   bands (ev):

   -15.7350 -12.2404 -12.0046 -10.4593  -6.1962  -4.7318  -4.6786  -1.9541
    -1.6010  -1.3037  -0.8061  -0.2954   0.2570   0.9954   3.0261   4.8627
     5.4065   6.1177   7.4129   8.6006

          k =-0.4062-0.9261 0.8001 (  2471 PWs)   bands (ev):

   -14.6858 -11.2478 -11.1996  -9.9319  -6.2173  -5.5292  -5.1832  -4.5515
    -2.9745  -1.4241   0.0337   0.2111   0.5168   1.7612   2.2107   3.4900
     5.0789   6.4657   6.8250   7.0976

          k =-0.4083-0.9232-1.5993 (  2444 PWs)   bands (ev):

   -11.8074 -11.7663  -9.1031  -8.9111  -8.3707  -8.3186  -5.7974  -5.7495
    -1.9917  -1.9690  -0.0789  -0.0504   3.0432   3.1268   3.6701   3.8398
     4.0639   4.5187   5.3242   5.6050

     the Fermi energy is     4.2187 ev

!    total energy              =     -90.17641667 Ry
     Harris-Foulkes estimate   =     -90.17641669 Ry
     estimated scf accuracy    <       0.00000002 Ry

     The total energy is the sum of the following terms:

     one-electron contribution =     -69.95505314 Ry
     hartree contribution      =      48.03404443 Ry
     xc contribution           =     -27.21070722 Ry
     ewald contribution        =     -41.04458240 Ry
     smearing contrib. (-TS)   =      -0.00011834 Ry

     convergence has been achieved in  13 iterations

     Forces acting on atoms (cartesian axes, Ry/au):

     atom    1 type  1   force =    -0.00594914   -0.00009274   -0.00011661
     atom    2 type  1   force =    -0.00251141    0.00256494    0.00242295
     atom    3 type  1   force =     0.00121882   -0.00094052   -0.00198855
     atom    4 type  1   force =     0.00657341   -0.00112227   -0.00004766
     atom    5 type  1   force =     0.00699033   -0.00254190   -0.06551404
     atom    6 type  1   force =    -0.00322833   -0.00141588    0.00259438
     atom    7 type  1   force =    -0.00719397    0.00335890    0.06515773
     atom    8 type  1   force =     0.00410029    0.00018947   -0.00250820

     Total force =     0.093826     Total SCF correction =     0.000329


     Computing stress (Cartesian axis) and pressure

          total   stress  (Ry/bohr**3)                   (kbar)     P=        2.01
   0.00001766   0.00000640  -0.00004783            2.60        0.94       -7.04
   0.00000640  -0.00000612   0.00003534            0.94       -0.90        5.20
  -0.00004783   0.00003534   0.00002948           -7.04        5.20        4.34


     number of scf cycles    =   5
     number of bfgs steps    =   4

     enthalpy old            =     -90.1758953718 Ry
     enthalpy new            =     -90.1763766101 Ry

     CASE: enthalpy_new < enthalpy_old

     new trust radius        =       0.0220530328 bohr
     new conv_thr            =       0.0000000481 Ry

     new unit-cell volume =    590.53495 a.u.^3 (    87.50825 Ang^3 )
     density =      1.82168 g/cm^3

CELL_PARAMETERS (bohr)
  15.464510519   1.528311644  -0.028375597
   0.732339551   7.992250608   0.014922166
  -0.009466059   0.006980954   4.821632370

ATOMIC_POSITIONS (crystal)
C             0.9248315327        0.5849514093        0.6816731155
C             0.1649850044        0.2049800772        0.6827699482
C             0.9810451560        0.7063170197        0.1795400271
C             0.2226033078        0.3235592720        0.1803191369
C             0.5656733943        0.8401809215        0.7000274500
C             0.9835396524        0.2497187877        0.6826095100
C             0.5560428358        0.8493575264        0.2245475153
C             0.1633241166        0.6579599860        0.1792332969



     Writing output data file ./pp.save/
     NEW-OLD atomic charge density approx. for the potential
     extrapolated charge   32.06585, renormalised to   32.00000

     total cpu time spent up to now is       76.2 secs

     Self-consistent Calculation

     iteration #  1     ecut=    40.00 Ry     beta= 0.50
     Davidson diagonalization with overlap
     ethr =  1.00E-06,  avg # of iterations =  5.9

     total cpu time spent up to now is       80.2 secs

     total energy              =     -90.17255397 Ry
     Harris-Foulkes estimate   =     -90.05630188 Ry
     estimated scf accuracy    <       0.01003935 Ry

     iteration #  2     ecut=    40.00 Ry     beta= 0.50
     Davidson diagonalization with overlap
     ethr =  3.14E-05,  avg # of iterations =  3.4

     total cpu time spent up to now is       82.5 secs

     total energy              =     -90.15403779 Ry
     Harris-Foulkes estimate   =     -90.20293291 Ry
     estimated scf accuracy    <       0.41851910 Ry

     iteration #  3     ecut=    40.00 Ry     beta= 0.50
     Davidson diagonalization with overlap
     ethr =  3.14E-05,  avg # of iterations =  3.1

     total cpu time spent up to now is       84.6 secs

     total energy              =     -90.17823439 Ry
     Harris-Foulkes estimate   =     -90.17860360 Ry
     estimated scf accuracy    <       0.00157022 Ry

     iteration #  4     ecut=    40.00 Ry     beta= 0.50
     Davidson diagonalization with overlap
     ethr =  4.91E-06,  avg # of iterations =  1.6

     total cpu time spent up to now is       86.1 secs

     total energy              =     -90.17820434 Ry
     Harris-Foulkes estimate   =     -90.17835569 Ry
     estimated scf accuracy    <       0.00064532 Ry

     iteration #  5     ecut=    40.00 Ry     beta= 0.50
     Davidson diagonalization with overlap
     ethr =  2.02E-06,  avg # of iterations =  2.6

     total cpu time spent up to now is       88.0 secs

     total energy              =     -90.17819135 Ry
     Harris-Foulkes estimate   =     -90.17835355 Ry
     estimated scf accuracy    <       0.00069707 Ry

     iteration #  6     ecut=    40.00 Ry     beta= 0.50
     Davidson diagonalization with overlap
     ethr =  2.02E-06,  avg # of iterations =  1.7

     total cpu time spent up to now is       89.6 secs

     total energy              =     -90.17827536 Ry
     Harris-Foulkes estimate   =     -90.17828366 Ry
     estimated scf accuracy    <       0.00003355 Ry

     iteration #  7     ecut=    40.00 Ry     beta= 0.50
     Davidson diagonalization with overlap
     ethr =  1.05E-07,  avg # of iterations =  2.3

     total cpu time spent up to now is       91.4 secs

     total energy              =     -90.17827964 Ry
     Harris-Foulkes estimate   =     -90.17828088 Ry
     estimated scf accuracy    <       0.00000445 Ry

     iteration #  8     ecut=    40.00 Ry     beta= 0.50
     Davidson diagonalization with overlap
     ethr =  1.39E-08,  avg # of iterations =  2.4

     total cpu time spent up to now is       93.3 secs

     total energy              =     -90.17828035 Ry
     Harris-Foulkes estimate   =     -90.17828061 Ry
     estimated scf accuracy    <       0.00000134 Ry

     iteration #  9     ecut=    40.00 Ry     beta= 0.50
     Davidson diagonalization with overlap
     ethr =  4.19E-09,  avg # of iterations =  2.0

     total cpu time spent up to now is       95.1 secs

     total energy              =     -90.17828049 Ry
     Harris-Foulkes estimate   =     -90.17828058 Ry
     estimated scf accuracy    <       0.00000031 Ry

     iteration # 10     ecut=    40.00 Ry     beta= 0.50
     Davidson diagonalization with overlap
     ethr =  9.57E-10,  avg # of iterations =  2.1

     total cpu time spent up to now is       96.9 secs

     total energy              =     -90.17828051 Ry
     Harris-Foulkes estimate   =     -90.17828052 Ry
     estimated scf accuracy    <       0.00000007 Ry

     iteration # 11     ecut=    40.00 Ry     beta= 0.50
     Davidson diagonalization with overlap
     ethr =  2.04E-10,  avg # of iterations =  2.4

     total cpu time spent up to now is       99.0 secs

     End of self-consistent calculation

          k = 0.0000 0.0000 0.0000 (  2475 PWs)   bands (ev):

   -16.0353 -12.1171 -11.9350  -9.4462  -5.9075  -5.4753  -4.5998  -2.5134
    -1.7807  -1.7724  -0.8170  -0.7830  -0.2963   1.1053   3.2447   5.1195
     6.4928   6.5485   8.4950   8.6757

          k = 0.0016-0.0016 0.7982 (  2473 PWs)   bands (ev):

   -14.9788 -11.1562 -11.1327  -9.2757  -6.0957  -5.2601  -4.9756  -4.9161
    -3.2407  -1.5562  -1.2516   0.1473   0.5507   1.8491   3.0244   3.7994
     4.2033   5.6856   6.7905   7.8416

          k =-0.0033 0.0033-1.5963 (  2478 PWs)   bands (ev):

   -12.0664 -11.9897  -9.1684  -8.6592  -8.2848  -8.1976  -5.1009  -5.0435
    -2.5026  -2.4598   0.5924   0.6956   2.1952   2.2352   3.4433   3.9382
     4.0037   4.6374   4.8738   5.1863

          k = 0.0960-0.9718 0.0016 (  2452 PWs)   bands (ev):

   -15.7561 -12.2911 -11.8514 -10.5079  -6.2608  -4.7422  -4.5974  -1.7048
    -1.6428  -1.1701  -0.9910  -0.3271   0.3118   0.9385   2.7441   4.8566
     5.3458   6.0364   7.5742   8.5368

          k = 0.0977-0.9735 0.7998 (  2472 PWs)   bands (ev):

   -14.7118 -11.3217 -11.0325  -9.9895  -6.0879  -5.5899  -5.2133  -4.6044
    -3.0058  -1.3857  -0.0574   0.2306   0.7999   1.7040   2.1798   3.1522
     4.9912   6.4289   6.7866   7.2529

          k = 0.0928-0.9686-1.5947 (  2478 PWs)   bands (ev):

   -11.8645 -11.7952  -9.1587  -8.6705  -8.3816  -8.3110  -5.8380  -5.7899
    -2.0433  -2.0073  -0.1694  -0.1052   3.0316   3.0663   3.6984   3.7751
     4.4413   4.7654   5.0735   5.3588

          k =-0.5023 0.0460-0.0011 (  2488 PWs)   bands (ev):

   -16.0345 -12.2120 -11.8298  -9.4457  -5.9254  -5.5094  -4.6001  -2.6625
    -1.7811  -1.4640  -0.7922  -0.7572  -0.2964   1.0523   2.9376   5.1107
     6.5485   6.6597   8.5522   8.6787

          k =-0.5006 0.0444 0.7971 (  2457 PWs)   bands (ev):

   -14.9780 -11.2944 -10.9862  -9.2756  -6.0958  -5.2666  -4.9972  -4.9187
    -3.2399  -1.6865  -1.1951   0.4978   0.5648   1.6875   3.0410   3.5328
     4.1768   5.6811   6.9659   7.8461

          k =-0.5055 0.0493-1.5974 (  2468 PWs)   bands (ev):

   -12.0658 -11.9890  -9.1796  -8.6888  -8.2508  -8.1823  -5.1042  -5.0464
    -2.5046  -2.4607   0.5489   0.6390   2.2005   2.2406   3.7515   3.9999
     4.2686   4.3251   4.8310   5.1264

          k =-0.4062-0.9258 0.0005 (  2476 PWs)   bands (ev):

   -15.7565 -12.2509 -11.9002 -10.5068  -6.2216  -4.7247  -4.5973  -1.9625
    -1.6427  -1.2056  -0.7735  -0.3269   0.2315   0.9755   2.9643   4.8126
     5.3807   6.0361   7.3526   8.5368

          k =-0.4046-0.9275 0.7987 (  2471 PWs)   bands (ev):

   -14.7121 -11.2593 -11.1019  -9.9885  -6.0889  -5.5637  -5.2114  -4.5985
    -3.0012  -1.4610   0.1079   0.2300   0.5051   1.7385   2.1697   3.4341
     5.0203   6.4436   6.7824   7.0272

          k =-0.4095-0.9225-1.5958 (  2444 PWs)   bands (ev):

   -11.8648 -11.7955  -9.1502  -8.6403  -8.4158  -8.3227  -5.8366  -5.7833
    -2.0411  -2.0129  -0.1233  -0.0838   2.9759   3.0740   3.5553   3.7317
     4.1450   4.8114   5.2918   5.6931

     the Fermi energy is     4.1989 ev

!    total energy              =     -90.17828051 Ry
     Harris-Foulkes estimate   =     -90.17828052 Ry
     estimated scf accuracy    <       0.00000001 Ry

     The total energy is the sum of the following terms:

     one-electron contribution =     -69.73595474 Ry
     hartree contribution      =      47.90830943 Ry
     xc contribution           =     -27.20461032 Ry
     ewald contribution        =     -41.14607045 Ry
     smearing contrib. (-TS)   =       0.00004557 Ry

     convergence has been achieved in  11 iterations

     Forces acting on atoms (cartesian axes, Ry/au):

     atom    1 type  1   force =     0.00057894    0.00204254   -0.00209426
     atom    2 type  1   force =     0.00012588    0.00081681    0.00208345
     atom    3 type  1   force =    -0.00065395    0.00011039   -0.00212704
     atom    4 type  1   force =    -0.00004219   -0.00285872    0.00238258
     atom    5 type  1   force =     0.00193968   -0.00062049   -0.00538470
     atom    6 type  1   force =    -0.00018961   -0.00251248    0.00333623
     atom    7 type  1   force =    -0.00180230    0.00104985    0.00521823
     atom    8 type  1   force =     0.00004355    0.00197209   -0.00341449

     Total force =     0.011423     Total SCF correction =     0.000220


     Computing stress (Cartesian axis) and pressure

          total   stress  (Ry/bohr**3)                   (kbar)     P=        0.12
  -0.00000161  -0.00001583  -0.00002751           -0.24       -2.33       -4.05
  -0.00001583   0.00003101   0.00004141           -2.33        4.56        6.09
  -0.00002751   0.00004141  -0.00002690           -4.05        6.09       -3.96


     number of scf cycles    =   6
     number of bfgs steps    =   5

     enthalpy old            =     -90.1763766101 Ry
     enthalpy new            =     -90.1782403646 Ry

     CASE: enthalpy_new < enthalpy_old

     new trust radius        =       0.0075457440 bohr
     new conv_thr            =       0.0000000538 Ry

     new unit-cell volume =    590.95968 a.u.^3 (    87.57119 Ang^3 )
     density =      1.82037 g/cm^3

CELL_PARAMETERS (bohr)
  15.466169215   1.523261250  -0.039751963
   0.729057275   7.998761478   0.024375590
  -0.013338681   0.012417217   4.820319136

ATOMIC_POSITIONS (crystal)
C             0.9248186607        0.5851999346        0.6811963460
C             0.1649705903        0.2051383592        0.6833572093
C             0.9810118523        0.7063043537        0.1789472019
C             0.2226638163        0.3231933055        0.1808672775
C             0.5658602030        0.8400373782        0.6994833308
C             0.9834900028        0.2493884757        0.6834757537
C             0.5558606224        0.8495640922        0.2250480883
C             0.1633692523        0.6581991009        0.1783447925



     Writing output data file ./pp.save/
     NEW-OLD atomic charge density approx. for the potential
     extrapolated charge   32.02300, renormalised to   32.00000

     total cpu time spent up to now is       99.1 secs

     Self-consistent Calculation

     iteration #  1     ecut=    40.00 Ry     beta= 0.50
     Davidson diagonalization with overlap
     ethr =  1.00E-06,  avg # of iterations =  3.8

     total cpu time spent up to now is      102.1 secs

     total energy              =     -90.17740316 Ry
     Harris-Foulkes estimate   =     -90.13520764 Ry
     estimated scf accuracy    <       0.00143776 Ry

     iteration #  2     ecut=    40.00 Ry     beta= 0.50
     Davidson diagonalization with overlap
     ethr =  4.49E-06,  avg # of iterations =  3.4

     total cpu time spent up to now is      104.7 secs

     total energy              =     -90.17387869 Ry
     Harris-Foulkes estimate   =     -90.18306088 Ry
     estimated scf accuracy    <       0.09068887 Ry

     iteration #  3     ecut=    40.00 Ry     beta= 0.50
     Davidson diagonalization with overlap
     ethr =  4.49E-06,  avg # of iterations =  2.9

     total cpu time spent up to now is      107.2 secs

     total energy              =     -90.17844066 Ry
     Harris-Foulkes estimate   =     -90.17846320 Ry
     estimated scf accuracy    <       0.00014938 Ry

     iteration #  4     ecut=    40.00 Ry     beta= 0.50
     Davidson diagonalization with overlap
     ethr =  4.67E-07,  avg # of iterations =  1.4

     total cpu time spent up to now is      108.8 secs

     total energy              =     -90.17844125 Ry
     Harris-Foulkes estimate   =     -90.17844929 Ry
     estimated scf accuracy    <       0.00004866 Ry

     iteration #  5     ecut=    40.00 Ry     beta= 0.50
     Davidson diagonalization with overlap
     ethr =  1.52E-07,  avg # of iterations =  2.1

     total cpu time spent up to now is      110.7 secs

     total energy              =     -90.17844087 Ry
     Harris-Foulkes estimate   =     -90.17844800 Ry
     estimated scf accuracy    <       0.00003083 Ry

     iteration #  6     ecut=    40.00 Ry     beta= 0.50
     Davidson diagonalization with overlap
     ethr =  9.63E-08,  avg # of iterations =  1.6

     total cpu time spent up to now is      112.3 secs

     total energy              =     -90.17844452 Ry
     Harris-Foulkes estimate   =     -90.17844482 Ry
     estimated scf accuracy    <       0.00000118 Ry

     iteration #  7     ecut=    40.00 Ry     beta= 0.50
     Davidson diagonalization with overlap
     ethr =  3.70E-09,  avg # of iterations =  3.4

     total cpu time spent up to now is      115.1 secs

     total energy              =     -90.17844484 Ry
     Harris-Foulkes estimate   =     -90.17844494 Ry
     estimated scf accuracy    <       0.00000039 Ry

     iteration #  8     ecut=    40.00 Ry     beta= 0.50
     Davidson diagonalization with overlap
     ethr =  1.21E-09,  avg # of iterations =  2.0

     total cpu time spent up to now is      117.0 secs

     total energy              =     -90.17844486 Ry
     Harris-Foulkes estimate   =     -90.17844489 Ry
     estimated scf accuracy    <       0.00000010 Ry

     iteration #  9     ecut=    40.00 Ry     beta= 0.50
     Davidson diagonalization with overlap
     ethr =  3.05E-10,  avg # of iterations =  2.1

     total cpu time spent up to now is      119.1 secs

     End of self-consistent calculation

          k = 0.0000 0.0000 0.0000 (  2475 PWs)   bands (ev):

   -16.0301 -12.1265 -11.9337  -9.4440  -5.9103  -5.4861  -4.5899  -2.5129
    -1.7854  -1.7766  -0.8193  -0.7830  -0.3153   1.0938   3.2361   5.1146
     6.4725   6.5551   8.4911   8.6602

          k = 0.0023-0.0026 0.7984 (  2473 PWs)   bands (ev):

   -14.9728 -11.1639 -11.1316  -9.2702  -6.0866  -5.2572  -4.9836  -4.9260
    -3.2594  -1.5561  -1.2504   0.1439   0.5513   1.8373   3.0210   3.7897
     4.1918   5.6699   6.7807   7.8274

          k =-0.0046 0.0053-1.5968 (  2478 PWs)   bands (ev):

   -12.0603 -11.9771  -9.1877  -8.6302  -8.2946  -8.2092  -5.1111  -5.0498
    -2.5062  -2.4496   0.5788   0.7034   2.1806   2.2283   3.4230   3.9294
     3.9792   4.6342   4.8679   5.2191

          k = 0.0956-0.9710 0.0028 (  2452 PWs)   bands (ev):

   -15.7504 -12.3041 -11.8522 -10.4992  -6.2747  -4.7374  -4.5876  -1.7064
    -1.6483  -1.1680  -0.9943  -0.3468   0.3031   0.9355   2.7397   4.8527
     5.3130   6.0469   7.5531   8.5220

          k = 0.0980-0.9736 0.8012 (  2472 PWs)   bands (ev):

   -14.7054 -11.3323 -11.0354  -9.9775  -6.0788  -5.6002  -5.2180  -4.6037
    -3.0196  -1.3836  -0.0596   0.2328   0.7962   1.6943   2.1771   3.1455
     4.9756   6.4000   6.7796   7.2324

          k = 0.0910-0.9657-1.5940 (  2478 PWs)   bands (ev):

   -11.8553 -11.7848  -9.1781  -8.6470  -8.3902  -8.3225  -5.8441  -5.7915
    -2.0405  -2.0010  -0.1763  -0.1151   3.0276   3.0642   3.6667   3.7521
     4.4505   4.7813   5.0750   5.3599

          k =-0.5022 0.0458-0.0015 (  2488 PWs)   bands (ev):

   -16.0293 -12.2183 -11.8317  -9.4435  -5.9291  -5.5188  -4.5903  -2.6628
    -1.7859  -1.4688  -0.7943  -0.7573  -0.3153   1.0426   2.9273   5.1066
     6.5550   6.6385   8.5470   8.6657

          k =-0.4999 0.0431 0.7969 (  2457 PWs)   bands (ev):

   -14.9721 -11.2977 -10.9895  -9.2701  -6.0867  -5.2647  -5.0047  -4.9277
    -3.2585  -1.6868  -1.1939   0.4938   0.5654   1.6778   3.0377   3.5187
     4.1683   5.6653   6.9567   7.8314

          k =-0.5068 0.0511-1.5983 (  2468 PWs)   bands (ev):

   -12.0598 -11.9765  -9.1987  -8.6628  -8.2577  -8.1941  -5.1143  -5.0527
    -2.5082  -2.4506   0.5377   0.6448   2.1862   2.2334   3.7197   3.9763
     4.2489   4.3258   4.8466   5.1578

          k =-0.4065-0.9252 0.0013 (  2476 PWs)   bands (ev):

   -15.7508 -12.2656 -11.8992 -10.4981  -6.2354  -4.7203  -4.5874  -1.9655
    -1.6483  -1.2028  -0.7751  -0.3468   0.2227   0.9735   2.9585   4.8080
     5.3478   6.0465   7.3320   8.5218

          k =-0.4042-0.9279 0.7997 (  2471 PWs)   bands (ev):

   -14.7058 -11.2734 -11.1013  -9.9765  -6.0799  -5.5737  -5.2161  -4.5982
    -3.0150  -1.4593   0.1093   0.2261   0.5046   1.7301   2.1670   3.4263
     5.0045   6.4147   6.7757   7.0056

          k =-0.4112-0.9199-1.5955 (  2444 PWs)   bands (ev):

   -11.8556 -11.7851  -9.1697  -8.6116  -8.4296  -8.3342  -5.8427  -5.7848
    -2.0384  -2.0065  -0.1280  -0.0964   2.9696   3.0719   3.5333   3.7108
     4.1414   4.8467   5.2784   5.6947

     the Fermi energy is     4.1885 ev

!    total energy              =     -90.17844487 Ry
     Harris-Foulkes estimate   =     -90.17844488 Ry
     estimated scf accuracy    <       0.00000001 Ry

     The total energy is the sum of the following terms:

     one-electron contribution =     -69.70400878 Ry
     hartree contribution      =      47.88608857 Ry
     xc contribution           =     -27.20083356 Ry
     ewald contribution        =     -41.15974416 Ry
     smearing contrib. (-TS)   =       0.00005305 Ry

     convergence has been achieved in   9 iterations

[...]
    -1.9859  -0.6837   0.2740   0.7782   1.2656   1.7349   4.2925   5.5909
     6.5582   7.7333  10.7304  11.1354

          k =-0.0329-0.8238-1.4645 (  2478 PWs)   bands (ev):

   -11.9307  -9.3696  -8.1519  -7.8168  -7.6529  -6.7095  -5.0225  -4.5739
    -2.6740  -1.8187  -0.6315   1.5486   3.4189   3.4617   4.3194   4.5380
     5.4561   5.9119   6.7509   6.8523

          k =-0.4644 0.0321-0.0227 (  2488 PWs)   bands (ev):

   -15.1897 -11.5560 -10.6385  -7.3967  -5.8056  -4.1215  -3.5441  -2.6903
    -2.1750   0.3556   0.7453   0.9468   1.1232   1.6879   4.0079   5.8886
     6.9093   7.5211  10.8157  11.6058

          k =-0.4634-0.1252 0.8094 (  2457 PWs)   bands (ev):

   -14.0546 -10.5261  -9.8215  -8.1375  -5.0927  -4.4100  -4.3416  -2.6429
    -2.2418  -1.8802  -1.3884   1.5975   1.8089   2.1588   3.6018   4.1276
     4.7326   7.4112   9.9855  11.6452

          k =-0.4662 0.3467-1.6868 (  2468 PWs)   bands (ev):

   -11.6570  -9.9279  -8.1521  -8.0735  -7.3414  -6.6982  -4.6965  -4.6097
    -2.4783  -1.8017  -0.4489   1.1923   3.0002   3.5158   4.5847   4.7186
     5.3275   5.7603   6.2039   7.1390

          k =-0.4955-1.1063 0.1770 (  2476 PWs)   bands (ev):

   -13.1071 -13.0523 -10.4593  -9.7784  -8.0937  -2.7018  -2.3032  -1.8754
    -0.5921  -0.2328   0.4273   0.7007   1.2520   1.4967   4.0785   7.9740
     8.8245   9.4657   9.7994  10.9955

          k =-0.4946-1.2636 1.0090 (  2471 PWs)   bands (ev):

   -13.0715 -11.0779  -9.7218  -9.3097  -6.8417  -4.3778  -3.9234  -3.0104
    -1.9946  -0.6734   0.2692   0.7881   1.2116   1.8048   4.3153   5.5780
     6.5506   7.7039  10.4646  11.2562

          k =-0.4973-0.7917-1.4872 (  2444 PWs)   bands (ev):

   -11.9306  -9.3696  -8.1584  -7.8182  -7.6442  -6.7077  -5.0239  -4.5735
    -2.6717  -1.8184  -0.6443   1.5418   3.4114   3.4673   4.3101   4.6525
     5.6316   5.7252   6.6310   6.8428

     the Fermi energy is     5.5270 ev

!    total energy              =     -90.42953572 Ry
     Harris-Foulkes estimate   =     -90.42953577 Ry
     estimated scf accuracy    <       0.00000006 Ry

     The total energy is the sum of the following terms:

     one-electron contribution =     -75.70649383 Ry
     hartree contribution      =      52.09880548 Ry
     xc contribution           =     -27.51289300 Ry
     ewald contribution        =     -39.30683416 Ry
     smearing contrib. (-TS)   =      -0.00212021 Ry

     convergence has been achieved in  12 iterations

     Forces acting on atoms (cartesian axes, Ry/au):

     atom    1 type  1   force =    -0.00275931    0.00712431    0.01673549
     atom    2 type  1   force =     0.02828707   -0.02804043    0.01479160
     atom    3 type  1   force =    -0.02338249    0.02766711   -0.01441849
     atom    4 type  1   force =     0.00019031    0.00030988   -0.02795607
     atom    5 type  1   force =    -0.00383772    0.00461384   -0.18572145
     atom    6 type  1   force =    -0.02997616   -0.02844195    0.01096810
     atom    7 type  1   force =     0.00537026   -0.00442806    0.18525916
     atom    8 type  1   force =     0.02610803    0.02119530    0.00034166

     Total force =     0.276228     Total SCF correction =     0.000557


     Computing stress (Cartesian axis) and pressure

          total   stress  (Ry/bohr**3)                   (kbar)     P=       -0.19
   0.00036189  -0.00008265  -0.00013840           53.24      -12.16      -20.36
  -0.00008265  -0.00008722   0.00012528          -12.16      -12.83       18.43
  -0.00013840   0.00012528  -0.00027848          -20.36       18.43      -40.97


     number of scf cycles    =  37
     number of bfgs steps    =  36

     enthalpy old            =     -90.4273322794 Ry
     enthalpy new            =     -90.4294993359 Ry

     CASE: enthalpy_new < enthalpy_old

     new trust radius        =       0.0837341674 bohr
     new conv_thr            =       0.0000002167 Ry

     new unit-cell volume =    537.67973 a.u.^3 (    79.67591 Ang^3 )
     density =      2.00075 g/cm^3

CELL_PARAMETERS (bohr)
  16.658447458  -0.532593191   0.023532332
   0.539246837   6.947555109   1.339087414
  -0.145864079   0.807899398   4.788404344

ATOMIC_POSITIONS (crystal)
C             0.9302279458        0.5723306637        0.5733026009
C             0.1726255678        0.1323881135        0.8698367288
C             0.9697771787        0.7720678884       -0.0050135415
C             0.2150260881        0.3323449432        0.2943584947
C             0.5695563802        0.8245963920        0.7452011232
C             0.9869462421        0.1938493408        0.7844754316
C             0.5582608631        0.8788993929        0.1733459851
C             0.1596247342        0.7105482655        0.0752131771



     Writing output data file ./pp.save/
     NEW-OLD atomic charge density approx. for the potential
     extrapolated charge   32.14493, renormalised to   32.00000

     total cpu time spent up to now is     2710.1 secs

     Self-consistent Calculation

     iteration #  1     ecut=    40.00 Ry     beta= 0.50
     Davidson diagonalization with overlap
     ethr =  1.00E-06,  avg # of iterations =  7.3

     total cpu time spent up to now is     2741.5 secs

     total energy              =     -90.41143816 Ry
     Harris-Foulkes estimate   =     -90.12096753 Ry
     estimated scf accuracy    <       0.02532476 Ry

     iteration #  2     ecut=    40.00 Ry     beta= 0.50
     Davidson diagonalization with overlap
     ethr =  7.91E-05,  avg # of iterations =  5.0

     total cpu time spent up to now is     2760.4 secs

     total energy              =     -90.36099501 Ry
     Harris-Foulkes estimate   =     -90.50057706 Ry
     estimated scf accuracy    <       1.24246257 Ry

     iteration #  3     ecut=    40.00 Ry     beta= 0.50
     Davidson diagonalization with overlap
     ethr =  7.91E-05,  avg # of iterations =  3.9

     total cpu time spent up to now is     2776.4 secs

     total energy              =     -90.43256157 Ry
     Harris-Foulkes estimate   =     -90.43429591 Ry
     estimated scf accuracy    <       0.00872176 Ry

     iteration #  4     ecut=    40.00 Ry     beta= 0.50
     Davidson diagonalization with overlap
     ethr =  2.73E-05,  avg # of iterations =  1.3

     total cpu time spent up to now is     2785.4 secs

     total energy              =     -90.43295256 Ry
     Harris-Foulkes estimate   =     -90.43315011 Ry
     estimated scf accuracy    <       0.00151864 Ry

     iteration #  5     ecut=    40.00 Ry     beta= 0.50
     Davidson diagonalization with overlap
     ethr =  4.75E-06,  avg # of iterations =  4.2

     total cpu time spent up to now is     2800.7 secs

     total energy              =     -90.43294954 Ry
     Harris-Foulkes estimate   =     -90.43304101 Ry
     estimated scf accuracy    <       0.00106110 Ry

     iteration #  6     ecut=    40.00 Ry     beta= 0.50
     Davidson diagonalization with overlap
     ethr =  3.32E-06,  avg # of iterations =  1.0

     total cpu time spent up to now is     2808.8 secs

     total energy              =     -90.43282322 Ry
     Harris-Foulkes estimate   =     -90.43298978 Ry
     estimated scf accuracy    <       0.00071019 Ry

     iteration #  7     ecut=    40.00 Ry     beta= 0.50
     Davidson diagonalization with overlap
     ethr =  2.22E-06,  avg # of iterations =  1.5

     total cpu time spent up to now is     2818.2 secs

     total energy              =     -90.43285713 Ry
     Harris-Foulkes estimate   =     -90.43287575 Ry
     estimated scf accuracy    <       0.00013522 Ry

     iteration #  8     ecut=    40.00 Ry     beta= 0.50
     Davidson diagonalization with overlap
     ethr =  4.23E-07,  avg # of iterations =  1.9

     total cpu time spent up to now is     2828.7 secs

     total energy              =     -90.43285531 Ry
     Harris-Foulkes estimate   =     -90.43286585 Ry
     estimated scf accuracy    <       0.00006054 Ry

     iteration #  9     ecut=    40.00 Ry     beta= 0.50
     Davidson diagonalization with overlap
     ethr =  1.89E-07,  avg # of iterations =  1.0

     total cpu time spent up to now is     2837.0 secs

     total energy              =     -90.43285253 Ry
     Harris-Foulkes estimate   =     -90.43285744 Ry
     estimated scf accuracy    <       0.00003289 Ry

     iteration # 10     ecut=    40.00 Ry     beta= 0.50
     Davidson diagonalization with overlap
     ethr =  1.03E-07,  avg # of iterations =  1.0

     total cpu time spent up to now is     2845.4 secs

     total energy              =     -90.43284907 Ry
     Harris-Foulkes estimate   =     -90.43285325 Ry
     estimated scf accuracy    <       0.00002062 Ry

     iteration # 11     ecut=    40.00 Ry     beta= 0.50
     Davidson diagonalization with overlap
     ethr =  6.44E-08,  avg # of iterations =  1.1

     total cpu time spent up to now is     2854.6 secs

     total energy              =     -90.43284461 Ry
     Harris-Foulkes estimate   =     -90.43284966 Ry
     estimated scf accuracy    <       0.00001014 Ry

     iteration # 12     ecut=    40.00 Ry     beta= 0.50
     Davidson diagonalization with overlap
     ethr =  3.17E-08,  avg # of iterations =  2.8

     total cpu time spent up to now is     2867.2 secs

     total energy              =     -90.43284678 Ry
     Harris-Foulkes estimate   =     -90.43284691 Ry
     estimated scf accuracy    <       0.00000029 Ry

     iteration # 13     ecut=    40.00 Ry     beta= 0.50
     Davidson diagonalization with overlap
     ethr =  9.15E-10,  avg # of iterations =  3.4

     total cpu time spent up to now is     2882.5 secs

     End of self-consistent calculation

          k = 0.0000 0.0000 0.0000 (  2475 PWs)   bands (ev):

   -15.2190 -11.6425 -10.6863  -7.4490  -5.8485  -4.1488  -3.6586  -2.7754
    -2.2572   0.0336   0.7341   0.9478   1.0724   1.8708   4.0636   5.8054
     6.6934   7.4095  10.7848  11.4132

          k =-0.0063-0.1596 0.8304 (  2473 PWs)   bands (ev):

   -14.0857 -10.6093  -9.8659  -8.1717  -5.1842  -4.4511  -4.4007  -2.6768
    -2.2966  -1.9106  -1.4982   1.2846   1.9179   2.1640   3.5148   4.1728
     4.6766   7.2651  10.1157  11.6167

          k = 0.0125 0.3191-1.6609 (  2478 PWs)   bands (ev):

   -11.6904  -9.9687  -8.1590  -8.1182  -7.4534  -6.7792  -4.6910  -4.6574
    -2.5606  -1.9268  -0.5152   1.1719   2.9279   3.4490   4.5371   4.7324
     5.1062   6.0196   6.2961   6.8015

          k =-0.0368-1.1419 0.1915 (  2452 PWs)   bands (ev):

   -13.1426 -13.0653 -10.4857  -9.8973  -8.2226  -2.7894  -2.3285  -1.9458
    -0.6139  -0.2149   0.4455   0.4948   1.2156   1.4072   3.8728   8.0722
     8.7997   9.4745   9.8167  10.9394

          k =-0.0431-1.3015 1.0220 (  2472 PWs)   bands (ev):

   -13.0842 -11.1163  -9.7434  -9.4207  -6.9754  -4.4467  -3.9479  -3.0540
    -2.0372  -0.7529   0.2250   0.6777   1.2285   1.7034   4.2036   5.5624
     6.4748   7.6926  10.5470  11.1315

          k =-0.0242-0.8228-1.4693 (  2478 PWs)   bands (ev):

   -11.9351  -9.4160  -8.1580  -7.8896  -7.7175  -6.7862  -5.0956  -4.6602
    -2.7605  -1.9618  -0.6851   1.5174   3.4113   3.4432   4.3396   4.5417
     5.3751   5.8144   6.7006   6.7933

          k =-0.4607 0.0398-0.0207 (  2488 PWs)   bands (ev):

   -15.2187 -11.6519 -10.6722  -7.4509  -5.8486  -4.1793  -3.6575  -2.7758
    -2.2821   0.3073   0.7338   0.9456   1.0814   1.6508   3.8990   5.8043
     6.8513   7.4242  10.8312  11.5868

          k =-0.4670-0.1198 0.8097 (  2457 PWs)   bands (ev):

   -14.0854 -10.6182  -9.8536  -8.1721  -5.1839  -4.4475  -4.4102  -2.6776
    -2.3154  -1.9132  -1.5069   1.5692   1.7853   2.1304   3.5175   4.0199
     4.6464   7.3670  10.0915  11.5483

          k =-0.4482 0.3589-1.6816 (  2468 PWs)   bands (ev):

   -11.6903  -9.9685  -8.1615  -8.1218  -7.4463  -6.7783  -4.6922  -4.6578
    -2.5601  -1.9269  -0.5199   1.1685   2.9186   3.4535   4.5889   4.7328
     5.2577   5.7299   6.1907   7.0461

          k =-0.4975-1.1022 0.1708 (  2476 PWs)   bands (ev):

   -13.1427 -13.0649 -10.4890  -9.8971  -8.2163  -2.7884  -2.3682  -1.9136
    -0.6140  -0.2688   0.3664   0.6382   1.2249   1.3829   3.9668   7.9474
     8.8005   9.3215   9.7295  10.9634

          k =-0.5038-1.2617 1.0012 (  2471 PWs)   bands (ev):

   -13.0839 -11.1169  -9.7497  -9.4136  -6.9728  -4.4464  -3.9490  -3.0608
    -2.0454  -0.7406   0.2208   0.6829   1.1802   1.7626   4.2347   5.5498
     6.4679   7.6594  10.3202  11.2104

          k =-0.4850-0.7830-1.4901 (  2444 PWs)   bands (ev):

   -11.9350  -9.4159  -8.1654  -7.8906  -7.7087  -6.7843  -5.0968  -4.6602
    -2.7584  -1.9616  -0.6960   1.5107   3.4011   3.4489   4.3278   4.6529
     5.5532   5.6255   6.5935   6.7868

     the Fermi energy is     5.4729 ev

!    total energy              =     -90.43284685 Ry
     Harris-Foulkes estimate   =     -90.43284686 Ry
     estimated scf accuracy    <       0.00000001 Ry

     The total energy is the sum of the following terms:

     one-electron contribution =     -76.98586508 Ry
     hartree contribution      =      52.67151561 Ry
     xc contribution           =     -27.51367540 Ry
     ewald contribution        =     -38.60284989 Ry
     smearing contrib. (-TS)   =      -0.00197208 Ry

     convergence has been achieved in  13 iterations

     Forces acting on atoms (cartesian axes, Ry/au):

     atom    1 type  1   force =    -0.00205885    0.01406526    0.01571531
     atom    2 type  1   force =     0.02789211   -0.02537472    0.01241150
     atom    3 type  1   force =    -0.02310431    0.02487121   -0.01167008
     atom    4 type  1   force =    -0.00018895   -0.00788877   -0.02710991
     atom    5 type  1   force =    -0.00573181    0.00561585   -0.17244738
     atom    6 type  1   force =    -0.02732204   -0.02954234    0.01009024
     atom    7 type  1   force =     0.00725034   -0.00547754    0.17208805
     atom    8 type  1   force =     0.02326352    0.02373105    0.00092228

     Total force =     0.257752     Total SCF correction =     0.000149


     Computing stress (Cartesian axis) and pressure

          total   stress  (Ry/bohr**3)                   (kbar)     P=        0.63
   0.00032205  -0.00011673  -0.00014059           47.38      -17.17      -20.68
  -0.00011673  -0.00002826   0.00015226          -17.17       -4.16       22.40
  -0.00014059   0.00015226  -0.00028103          -20.68       22.40      -41.34


     number of scf cycles    =  38
     number of bfgs steps    =  37

     enthalpy old            =     -90.4294993359 Ry
     enthalpy new            =     -90.4328103031 Ry

     CASE: enthalpy_new < enthalpy_old

     new trust radius        =       0.1255134772 bohr
     new conv_thr            =       0.0000003311 Ry

     new unit-cell volume =    541.30813 a.u.^3 (    80.21359 Ang^3 )
     density =      1.98734 g/cm^3

CELL_PARAMETERS (bohr)
  16.818881124  -0.639395355   0.213994889
   0.721623313   6.905667729   1.385113910
  -0.104120433   0.757868971   4.790452944

ATOMIC_POSITIONS (crystal)
C             0.9310686671        0.5757665028        0.5786757481
C             0.1720180982        0.1291144586        0.8647837983
C             0.9691751344        0.7753535597       -0.0012646503
C             0.2143886397        0.3295115013        0.2881645708
C             0.5697346141        0.8272492135        0.7430862172
C             0.9867431020        0.1949166397        0.7898832551
C             0.5580516454        0.8765522902        0.1770382262
C             0.1608650991        0.7085608342        0.0703528346



     Writing output data file ./pp.save/
     NEW-OLD atomic charge density approx. for the potential
     extrapolated charge   32.21449, renormalised to   32.00000

     total cpu time spent up to now is     2883.0 secs

     Self-consistent Calculation

     iteration #  1     ecut=    40.00 Ry     beta= 0.50
     Davidson diagonalization with overlap
     ethr =  1.00E-06,  avg # of iterations =  8.8

     total cpu time spent up to now is     2918.7 secs

     total energy              =     -90.39887015 Ry
     Harris-Foulkes estimate   =     -89.96649108 Ry
     estimated scf accuracy    <       0.04498648 Ry

     iteration #  2     ecut=    40.00 Ry     beta= 0.50
     Davidson diagonalization with overlap
     ethr =  1.41E-04,  avg # of iterations =  5.1

     total cpu time spent up to now is     2938.5 secs

     total energy              =     -90.37129930 Ry
     Harris-Foulkes estimate   =     -90.57264155 Ry
     estimated scf accuracy    <       1.51950126 Ry

     iteration #  3     ecut=    40.00 Ry     beta= 0.50
     Davidson diagonalization with overlap
     ethr =  1.41E-04,  avg # of iterations =  4.2

     total cpu time spent up to now is     2955.7 secs

     total energy              =     -90.43758651 Ry
     Harris-Foulkes estimate   =     -90.43940569 Ry
     estimated scf accuracy    <       0.00789856 Ry

     iteration #  4     ecut=    40.00 Ry     beta= 0.50
     Davidson diagonalization with overlap
     ethr =  2.47E-05,  avg # of iterations =  2.1

     total cpu time spent up to now is     2967.0 secs

     total energy              =     -90.43789969 Ry
     Harris-Foulkes estimate   =     -90.43820762 Ry
     estimated scf accuracy    <       0.00175634 Ry

     iteration #  5     ecut=    40.00 Ry     beta= 0.50
     Davidson diagonalization with overlap
     ethr =  5.49E-06,  avg # of iterations =  4.0

     total cpu time spent up to now is     2983.4 secs

     total energy              =     -90.43784214 Ry
     Harris-Foulkes estimate   =     -90.43805764 Ry
     estimated scf accuracy    <       0.00158932 Ry

     iteration #  6     ecut=    40.00 Ry     beta= 0.50
     Davidson diagonalization with overlap
     ethr =  4.97E-06,  avg # of iterations =  1.0

     total cpu time spent up to now is     2992.0 secs

     total energy              =     -90.43768855 Ry
     Harris-Foulkes estimate   =     -90.43793523 Ry
     estimated scf accuracy    <       0.00086955 Ry

     iteration #  7     ecut=    40.00 Ry     beta= 0.50
     Davidson diagonalization with overlap
     ethr =  2.72E-06,  avg # of iterations =  2.2

     total cpu time spent up to now is     3003.6 secs

     total energy              =     -90.43775134 Ry
     Harris-Foulkes estimate   =     -90.43776937 Ry
     estimated scf accuracy    <       0.00011800 Ry

     iteration #  8     ecut=    40.00 Ry     beta= 0.50
     Davidson diagonalization with overlap
     ethr =  3.69E-07,  avg # of iterations =  2.0

     total cpu time spent up to now is     3014.8 secs

     total energy              =     -90.43774845 Ry
     Harris-Foulkes estimate   =     -90.43776040 Ry
     estimated scf accuracy    <       0.00006003 Ry

     iteration #  9     ecut=    40.00 Ry     beta= 0.50
     Davidson diagonalization with overlap
     ethr =  1.88E-07,  avg # of iterations =  1.1

     total cpu time spent up to now is     3023.8 secs

     total energy              =     -90.43774238 Ry
     Harris-Foulkes estimate   =     -90.43774979 Ry
     estimated scf accuracy    <       0.00004744 Ry

     iteration # 10     ecut=    40.00 Ry     beta= 0.50
     Davidson diagonalization with overlap
     ethr =  1.48E-07,  avg # of iterations =  1.0

     total cpu time spent up to now is     3032.6 secs

     total energy              =     -90.43773534 Ry
     Harris-Foulkes estimate   =     -90.43774268 Ry
     estimated scf accuracy    <       0.00004308 Ry

     iteration # 11     ecut=    40.00 Ry     beta= 0.50
     Davidson diagonalization with overlap
     ethr =  1.35E-07,  avg # of iterations =  1.0

     total cpu time spent up to now is     3041.3 secs

     total energy              =     -90.43771609 Ry
     Harris-Foulkes estimate   =     -90.43773534 Ry
     estimated scf accuracy    <       0.00003922 Ry

     iteration # 12     ecut=    40.00 Ry     beta= 0.50
     Davidson diagonalization with overlap
