
     Program PWSCF v.6.5 starts on 10Jul2022 at 11:50:48 

     This program is part of the open-source Quantum ESPRESSO suite
     for quantum simulation of materials; please cite
         "P. Giannozzi et al., J. Phys.:Condens. Matter 21 395502 (2009);
         "P. Giannozzi et al., J. Phys.:Condens. Matter 29 465901 (2017);
          URL http://www.quantum-espresso.org", 
     in publications or presentations arising from this work. More details at
     http://www.quantum-espresso.org/quote

     Parallel version (MPI), running on    96 processors

     MPI processes distributed on     2 nodes
     R & G space division:  proc/nbgrp/npool/nimage =      96
     Waiting for input...
     Reading input from standard input
     Message from routine read_cards :
     DEPRECATED: no units specified in CELL_PARAMETERS card

     Current dimensions of program PWSCF are:
     Max number of different atomic species (ntypx) = 10
     Max number of k-points (npk) =  40000
     Max angular momentum in pseudopotentials (lmaxx) =  3

     Subspace diagonalization in iterative solution of the eigenvalue problem:
     one sub-group per band group will be used
     scalapack distributed-memory algorithm (size of sub-group:  9*  9 procs)

 
     Parallelization info
     --------------------
     sticks:   dense  smooth     PW     G-vecs:    dense   smooth      PW
     Min          15      15      4                  195      195      31
     Max          16      16      6                  197      197      35
     Sum        1501    1501    457                18795    18795    3137
 


     bravais-lattice index     =            0
     lattice parameter (alat)  =      14.2099  a.u.
     unit-cell volume          =     550.5479 (a.u.)^3
     number of atoms/cell      =            8
     number of atomic types    =            1
     number of electrons       =        32.00
     number of Kohn-Sham states=           20
     kinetic-energy cutoff     =      40.0000  Ry
     charge density cutoff     =     160.0000  Ry
     convergence threshold     =      1.0E-08
     mixing beta               =       0.5000
     number of iterations used =            8  plain     mixing
     Exchange-correlation=  SLA  PW   PBE  PBE
                           (   1   4   3   4   0   0   0)
     nstep                     =          250


     celldm(1)=  14.209875  celldm(2)=   0.000000  celldm(3)=   0.000000
     celldm(4)=   0.000000  celldm(5)=   0.000000  celldm(6)=   0.000000

     crystal axes: (cart. coord. in units of alat)
               a(1) = (   0.999763   0.021788  -0.000443 )  
               a(2) = (   0.011576   0.586268  -0.000183 )  
               a(3) = (   0.000436   0.000605   0.327505 )  

     reciprocal axes: (cart. coord. in units 2 pi/alat)
               b(1) = (  1.000668 -0.019760 -0.001297 )  
               b(2) = ( -0.037189  1.706437 -0.003104 )  
               b(3) = (  0.001334  0.000927  3.053388 )  


     PseudoPot. # 1 for C  read from file:
     ./C.pbe-van_bm.upf
     MD5 check sum: 1a69bf6b8db32088f5b2163dbdb77a27
     Pseudo is Ultrasoft, Zval =  4.0
     Generated by new atomic code, or converted to UPF format
     Using radial grid of  721 points,  4 beta functions with: 
                l(1) =   0
                l(2) =   0
                l(3) =   1
                l(4) =   1
     Q(r) pseudized with  8 coefficients,  rinner =    0.800   0.800   0.800


     atomic species   valence    mass     pseudopotential
        C              4.00    12.00000     C ( 1.00)

     No symmetry found



   Cartesian axes

     site n.     atom                  positions (alat units)
         1           C   tau(   1) = (   0.4990334   0.4820433   0.3613680  )
         2           C   tau(   2) = (   0.1582101   0.0826124   0.0341835  )
         3           C   tau(   3) = (   0.4172175   0.5283422   0.1976286  )
         4           C   tau(   4) = (  -0.0072608   0.1770807   0.0341871  )
         5           C   tau(   5) = (   0.2400661   0.0363748   0.1979198  )
         6           C   tau(   6) = (   0.6644585   0.3874814   0.3613876  )
         7           C   tau(   7) = (  -0.0885966   0.2240707   0.1979547  )
         8           C   tau(   8) = (   0.7457903   0.3404907   0.1976230  )

     number of k points=    16  Marzari-Vanderbilt smearing, width (Ry)=  0.0200
                       cart. coord. in units 2pi/alat
        k(    1) = (   0.0000000   0.0000000   0.0000000), wk =   0.0666667
        k(    2) = (   0.0002668   0.0001853   0.6106777), wk =   0.1333333
        k(    3) = (   0.0005335   0.0003706   1.2213553), wk =   0.1333333
        k(    4) = (  -0.0123965   0.5688123  -0.0010346), wk =   0.1333333
        k(    5) = (  -0.0121297   0.5689976   0.6096430), wk =   0.1333333
        k(    6) = (  -0.0118630   0.5691829   1.2203207), wk =   0.1333333
        k(    7) = (  -0.0129300   0.5684416  -1.2223899), wk =   0.1333333
        k(    8) = (  -0.0126633   0.5686270  -0.6117123), wk =   0.1333333
        k(    9) = (  -0.5003338   0.0098798   0.0006483), wk =   0.0666667
        k(   10) = (  -0.5000670   0.0100651   0.6113260), wk =   0.1333333
        k(   11) = (  -0.4998002   0.0102504   1.2220036), wk =   0.1333333
        k(   12) = (  -0.5127303   0.5786921  -0.0003863), wk =   0.1333333
        k(   13) = (  -0.5124635   0.5788774   0.6102913), wk =   0.1333333
        k(   14) = (  -0.5121967   0.5790627   1.2209690), wk =   0.1333333
        k(   15) = (  -0.5132638   0.5783214  -1.2217416), wk =   0.1333333
        k(   16) = (  -0.5129971   0.5785068  -0.6110640), wk =   0.1333333

     Dense  grid:    18795 G-vectors     FFT dimensions: (  60,  36,  20)

     Estimated max dynamical RAM per process >       1.56 MB

     Estimated total dynamical RAM >     150.12 MB

     Initial potential from superposition of free atoms

     starting charge   31.99968, renormalised to   32.00000
     Starting wfcs are   32 randomized atomic wfcs

     total cpu time spent up to now is        0.7 secs

     Self-consistent Calculation

     iteration #  1     ecut=    40.00 Ry     beta= 0.50
     Davidson diagonalization with overlap
     ethr =  1.00E-02,  avg # of iterations =  2.4

     total cpu time spent up to now is        1.7 secs

     total energy              =     -91.11668484 Ry
     Harris-Foulkes estimate   =     -91.49703765 Ry
     estimated scf accuracy    <       0.77951886 Ry

     iteration #  2     ecut=    40.00 Ry     beta= 0.50
     Davidson diagonalization with overlap
     ethr =  2.44E-03,  avg # of iterations =  2.5

     total cpu time spent up to now is        2.5 secs

     total energy              =     -91.14589773 Ry
     Harris-Foulkes estimate   =     -91.17840513 Ry
     estimated scf accuracy    <       0.07194589 Ry

     iteration #  3     ecut=    40.00 Ry     beta= 0.50
     Davidson diagonalization with overlap
     ethr =  2.25E-04,  avg # of iterations =  3.5

     total cpu time spent up to now is        3.6 secs

     total energy              =     -91.15725901 Ry
     Harris-Foulkes estimate   =     -91.15726426 Ry
     estimated scf accuracy    <       0.00204813 Ry

     iteration #  4     ecut=    40.00 Ry     beta= 0.50
     Davidson diagonalization with overlap
     ethr =  6.40E-06,  avg # of iterations =  3.9

     total cpu time spent up to now is        4.6 secs

     total energy              =     -91.15745401 Ry
     Harris-Foulkes estimate   =     -91.15752259 Ry
     estimated scf accuracy    <       0.00016889 Ry

     iteration #  5     ecut=    40.00 Ry     beta= 0.50
     Davidson diagonalization with overlap
     ethr =  5.28E-07,  avg # of iterations =  2.1

     total cpu time spent up to now is        5.5 secs

     total energy              =     -91.15748961 Ry
     Harris-Foulkes estimate   =     -91.15749180 Ry
     estimated scf accuracy    <       0.00000853 Ry

     iteration #  6     ecut=    40.00 Ry     beta= 0.50
     Davidson diagonalization with overlap
     ethr =  2.66E-08,  avg # of iterations =  2.3

     total cpu time spent up to now is        6.2 secs

     total energy              =     -91.15749039 Ry
     Harris-Foulkes estimate   =     -91.15749121 Ry
     estimated scf accuracy    <       0.00000204 Ry

     iteration #  7     ecut=    40.00 Ry     beta= 0.50
     Davidson diagonalization with overlap
     ethr =  6.38E-09,  avg # of iterations =  2.0

     total cpu time spent up to now is        7.0 secs

     total energy              =     -91.15749075 Ry
     Harris-Foulkes estimate   =     -91.15749074 Ry
     estimated scf accuracy    <       0.00000002 Ry

     iteration #  8     ecut=    40.00 Ry     beta= 0.50
     Davidson diagonalization with overlap
     ethr =  6.83E-11,  avg # of iterations =  3.0

     total cpu time spent up to now is        8.1 secs

     End of self-consistent calculation

          k = 0.0000 0.0000 0.0000 (  2365 PWs)   bands (ev):

   -14.0384 -12.5347 -12.5347  -8.7899  -7.6188  -1.8749  -1.8748  -1.6264
    -0.9175  -0.3759  -0.3757   0.4330   0.4331   2.3901   2.5801   2.8081
     6.9144   8.9378  12.2671  12.2689

          k = 0.0003 0.0002 0.6107 (  2359 PWs)   bands (ev):

   -13.3287 -11.8415 -11.8412  -8.1864  -7.0575  -3.3527  -2.6188  -2.6182
    -1.1065  -1.1054  -0.7992   0.1361   0.4312   0.4340   1.1581   3.6786
     6.7179   9.8501  11.5007  11.5051

          k = 0.0005 0.0004 1.2214 (  2351 PWs)   bands (ev):

   -11.2398  -9.8202  -9.8196  -8.0239  -6.3895  -6.3860  -6.3859  -4.5939
    -3.4813  -1.8557  -0.9546  -0.9542   1.5544   2.5277   2.5321   4.7552
     6.2292   8.0767   8.0843  10.1911

          k =-0.0124 0.5688-0.0010 (  2340 PWs)   bands (ev):

   -13.8299 -13.2982 -11.4565 -10.0332  -6.1878  -4.1069  -1.9089  -1.7322
    -0.7511  -0.2800   0.2530   1.2745   1.2877   1.9132   2.0607   2.2605
     8.3570  10.7209  10.8547  12.2535

          k =-0.0121 0.5690 0.6096 (  2364 PWs)   bands (ev):

   -13.1241 -12.5986 -10.7770  -9.3853  -5.7367  -3.9971  -3.1355  -2.4401
    -1.5057  -1.0666  -0.8880  -0.4486   0.3387   1.1032   2.0367   3.0511
     7.9367   9.7501  11.7045  13.1608

          k =-0.0119 0.5692 1.2203 (  2355 PWs)   bands (ev):

   -11.0466 -10.5446  -8.8537  -8.0385  -7.0944  -7.0596  -5.4194  -4.2588
    -3.6122  -2.1157  -1.2333  -0.6563   1.3256   1.4776   3.5455   4.1886
     6.6881   7.2060   9.2841   9.9720

          k =-0.0129 0.5684-1.2224 (  2353 PWs)   bands (ev):

   -11.0461 -10.5445  -8.8540  -8.0384  -7.0957  -7.0590  -5.4197  -4.2581
    -3.6121  -2.1161  -1.2335  -0.6559   1.3201   1.4779   3.5445   4.1945
     6.6920   7.2071   9.2841   9.9673

          k =-0.0127 0.5686-0.6117 (  2357 PWs)   bands (ev):

   -13.1238 -12.5986 -10.7770  -9.3854  -5.7372  -3.9964  -3.1356  -2.4409
    -1.5063  -1.0696  -0.8878  -0.4476   0.3396   1.1027   2.0365   3.0538
     7.9395   9.7507  11.7176  13.1606

          k =-0.5003 0.0099 0.0006 (  2370 PWs)   bands (ev):

   -13.6577 -13.6574 -10.7320 -10.7317  -5.1488  -5.1486  -1.3387  -1.3372
    -0.5593  -0.5592   1.1632   1.1636   1.3347   1.3354   1.7106   1.7110
     9.1497   9.1510   9.8504   9.8533

          k =-0.5001 0.0101 0.6113 (  2358 PWs)   bands (ev):

   -12.9517 -12.9513 -10.0686 -10.0682  -4.8339  -4.8334  -2.8705  -2.8698
    -0.9468  -0.9462  -0.5163  -0.5138   0.8315   0.8324   2.1291   2.1307
     8.7347   8.7376  10.7430  10.7512

          k =-0.4998 0.0103 1.2220 (  2337 PWs)   bands (ev):

   -10.8759 -10.8754  -8.3246  -8.3237  -7.2471  -7.2465  -4.8216  -4.8213
    -2.8411  -2.8406  -0.8570  -0.8564   1.7803   1.7841   3.7725   3.7752
     6.9589   6.9645   9.4160   9.4207

          k =-0.5127 0.5787-0.0004 (  2359 PWs)   bands (ev):

   -13.9209 -13.0060 -11.9853  -9.3158  -7.1277  -2.9761  -2.3505  -0.8661
    -0.7936  -0.5935  -0.0662   0.0431   0.8591   2.2983   2.4078   3.0731
     7.8473  10.7048  11.4883  12.3102

          k =-0.5125 0.5789 0.6103 (  2350 PWs)   bands (ev):

   -13.2156 -12.3063 -11.3004  -8.6890  -6.5961  -3.2807  -3.2469  -2.0421
    -1.8462  -1.4951  -0.3438  -0.0501   0.2134   0.7434   1.1678   3.8927
     7.3285  10.6366  11.5876  12.2965

          k =-0.5122 0.5791 1.2210 (  2344 PWs)   bands (ev):

   -11.1393 -10.2564  -9.3233  -7.9791  -6.7929  -6.6874  -5.9058  -4.2962
    -3.7556  -1.6572  -1.4465  -0.6791   0.9574   2.3514   2.7875   4.3480
     6.6871   7.7465   8.4312  10.4245

          k =-0.5133 0.5783-1.2217 (  2346 PWs)   bands (ev):

   -11.1389 -10.2561  -9.3234  -7.9797  -6.7938  -6.6871  -5.9051  -4.2968
    -3.7556  -1.6568  -1.4461  -0.6795   0.9538   2.3471   2.7913   4.3514
     6.6906   7.7505   8.4275  10.4210

          k =-0.5130 0.5785-0.6111 (  2349 PWs)   bands (ev):

   -13.2154 -12.3061 -11.3005  -8.6892  -6.5961  -3.2811  -3.2481  -2.0410
    -1.8454  -1.4971  -0.3447  -0.0503   0.2110   0.7453   1.1685   3.8941
     7.3315  10.6383  11.5949  12.2947

     the Fermi energy is     4.9785 ev

!    total energy              =     -91.15749076 Ry
     Harris-Foulkes estimate   =     -91.15749076 Ry
     estimated scf accuracy    <          5.0E-09 Ry

     The total energy is the sum of the following terms:

     one-electron contribution =     -46.64803371 Ry
     hartree contribution      =      37.28160671 Ry
     xc contribution           =     -27.96733652 Ry
     ewald contribution        =     -53.82414671 Ry
     smearing contrib. (-TS)   =       0.00041947 Ry

     convergence has been achieved in   8 iterations

     Forces acting on atoms (cartesian axes, Ry/au):

     atom    1 type  1   force =     0.02062328   -0.01166483    0.00003983
     atom    2 type  1   force =    -0.02050542    0.01166299   -0.00000609
     atom    3 type  1   force =    -0.02074214    0.01148008    0.00029257
     atom    4 type  1   force =     0.02059244   -0.01152348    0.00000136
     atom    5 type  1   force =     0.02064964   -0.01155634   -0.00025266
     atom    6 type  1   force =    -0.02061141    0.01167025   -0.00003352
     atom    7 type  1   force =    -0.02055096    0.01155804    0.00026988
     atom    8 type  1   force =     0.02054456   -0.01162671   -0.00031136

     Total force =     0.066867     Total SCF correction =     0.000033


     Computing stress (Cartesian axis) and pressure

          total   stress  (Ry/bohr**3)                   (kbar)     P=        1.84
  -0.00018073   0.00009646  -0.00000026          -26.59       14.19       -0.04
   0.00009646  -0.00006279   0.00000064           14.19       -9.24        0.09
  -0.00000026   0.00000064   0.00028100           -0.04        0.09       41.34


     BFGS Geometry Optimization

     number of scf cycles    =   1
     number of bfgs steps    =   0

     enthalpy new            =     -91.1574533352 Ry

     new trust radius        =       0.0329584502 bohr
     new conv_thr            =       0.0000000100 Ry

     new unit-cell volume =    551.03805 a.u.^3 (    81.65541 Ang^3 )
     density =      1.95225 g/cm^3

CELL_PARAMETERS (bohr)
  14.143034581   0.343371884  -0.006430516
   0.183845954   8.318104630  -0.002486425
   0.006162837   0.008675672   4.686484884

ATOMIC_POSITIONS (crystal)
C             0.4908415204        0.8014412091        1.1045187334
C             0.1551787793        0.1364372535        0.1046605278
C             0.4053233364        0.8868858429        0.6045446674
C            -0.0093428446        0.3009032727        0.1045424727
C             0.2407212523        0.0510872332        0.6046268942
C             0.6553093075        0.6368354088        1.1046936238
C            -0.0948033074        0.3864847095        0.6045788153
C             0.7407669561        0.5512270702        0.6046642653



     Writing output data file ./pp.save/
     NEW-OLD atomic charge density approx. for the potential
     extrapolated charge   32.02847, renormalised to   32.00000

     total cpu time spent up to now is        8.3 secs

     Self-consistent Calculation

     iteration #  1     ecut=    40.00 Ry     beta= 0.50
     Davidson diagonalization with overlap
     ethr =  1.00E-06,  avg # of iterations =  5.8

     total cpu time spent up to now is       10.3 secs

     total energy              =     -91.15591143 Ry
     Harris-Foulkes estimate   =     -91.12303389 Ry
     estimated scf accuracy    <       0.00192382 Ry

     iteration #  2     ecut=    40.00 Ry     beta= 0.50
     Davidson diagonalization with overlap
     ethr =  6.01E-06,  avg # of iterations =  1.0

     total cpu time spent up to now is       10.8 secs

     total energy              =     -91.15591132 Ry
     Harris-Foulkes estimate   =     -91.15604623 Ry
     estimated scf accuracy    <       0.00024718 Ry

     iteration #  3     ecut=    40.00 Ry     beta= 0.50
     Davidson diagonalization with overlap
     ethr =  7.72E-07,  avg # of iterations =  2.0

     total cpu time spent up to now is       11.7 secs

     total energy              =     -91.15596090 Ry
     Harris-Foulkes estimate   =     -91.15596133 Ry
     estimated scf accuracy    <       0.00000441 Ry

     iteration #  4     ecut=    40.00 Ry     beta= 0.50
     Davidson diagonalization with overlap
     ethr =  1.38E-08,  avg # of iterations =  2.2

     total cpu time spent up to now is       12.6 secs

     total energy              =     -91.15596184 Ry
     Harris-Foulkes estimate   =     -91.15596170 Ry
     estimated scf accuracy    <       0.00000108 Ry

     iteration #  5     ecut=    40.00 Ry     beta= 0.50
     Davidson diagonalization with overlap
     ethr =  3.38E-09,  avg # of iterations =  1.3

     total cpu time spent up to now is       13.3 secs

     total energy              =     -91.15596187 Ry
     Harris-Foulkes estimate   =     -91.15596190 Ry
     estimated scf accuracy    <       0.00000007 Ry

     iteration #  6     ecut=    40.00 Ry     beta= 0.50
     Davidson diagonalization with overlap
     ethr =  2.18E-10,  avg # of iterations =  2.1

     total cpu time spent up to now is       14.2 secs

     End of self-consistent calculation

          k = 0.0000 0.0000 0.0000 (  2365 PWs)   bands (ev):

   -14.0359 -12.5191 -12.5190  -8.5566  -7.8621  -1.9899  -1.9899  -1.6258
    -0.8942  -0.3338  -0.3336   0.5504   0.5504   2.2211   2.7325   3.0880
     6.6278   8.9353  12.3408  12.3422

          k = 0.0003 0.0002 0.6064 (  2359 PWs)   bands (ev):

   -13.3344 -11.8339 -11.8337  -7.9500  -7.3421  -3.3034  -2.7349  -2.7332
    -0.9990  -0.9977  -0.8202   0.4379   0.4465   0.4496   0.8172   3.9433
     6.4146   9.8285  11.4244  11.4276

          k = 0.0005 0.0004 1.2128 (  2351 PWs)   bands (ev):

   -11.2738  -9.8517  -9.8514  -8.1580  -6.3653  -6.3642  -6.1432  -4.7213
    -3.2157  -2.1263  -0.9629  -0.9621   1.4633   2.4369   2.4427   4.5357
     6.4477   8.1461   8.1519  10.3314

          k =-0.0138 0.5697-0.0010 (  2340 PWs)   bands (ev):

   -13.8259 -13.2899 -11.4283  -9.9758  -6.2630  -4.1800  -1.9049  -1.7162
    -0.7178  -0.2162   0.0576   1.3663   1.4849   1.6126   2.3529   2.4355
     8.1571  10.5757  10.8572  12.2880

          k =-0.0136 0.5699 0.6054 (  2364 PWs)   bands (ev):

   -13.1282 -12.5984 -10.7573  -9.3365  -5.8521  -4.1330  -3.0661  -2.3198
    -1.5442  -1.0839  -0.8937  -0.3737   0.3627   0.9979   2.0910   3.1850
     7.7540   9.6386  11.6802  13.1053

          k =-0.0133 0.5701 1.2118 (  2355 PWs)   bands (ev):

   -11.0795 -10.5755  -8.9061  -8.1820  -7.0172  -6.9326  -5.3785  -4.1528
    -3.6447  -2.1196  -1.3424  -0.6938   1.2385   1.3962   3.4166   4.0258
     6.8509   7.3263   9.3620  10.0905

          k =-0.0144 0.5694-1.2139 (  2353 PWs)   bands (ev):

   -11.0790 -10.5756  -8.9055  -8.1833  -7.0182  -6.9317  -5.3780  -4.1528
    -3.6455  -2.1190  -1.3416  -0.6944   1.2335   1.3957   3.4177   4.0298
     6.8572   7.3247   9.3632  10.0850

          k =-0.0141 0.5696-0.6075 (  2357 PWs)   bands (ev):

   -13.1279 -12.5984 -10.7571  -9.3369  -5.8517  -4.1341  -3.0669  -2.3186
    -1.5428  -1.0867  -0.8938  -0.3746   0.3613   0.9994   2.0914   3.1870
     7.7579   9.6378  11.6933  13.1058

          k =-0.5026 0.0111 0.0006 (  2370 PWs)   bands (ev):

   -13.6519 -13.6517 -10.6936 -10.6933  -5.2166  -5.2165  -1.3287  -1.3272
    -0.5141  -0.5137   0.9160   0.9165   1.4542   1.4550   1.9561   1.9567
     9.0192   9.0201   9.8567   9.8595

          k =-0.5024 0.0113 0.6071 (  2358 PWs)   bands (ev):

   -12.9541 -12.9538 -10.0388 -10.0385  -4.9551  -4.9541  -2.7769  -2.7762
    -0.9384  -0.9369  -0.5291  -0.5264   0.8010   0.8025   2.2128   2.2151
     8.6043   8.6058  10.7310  10.7390

          k =-0.5021 0.0115 1.2135 (  2337 PWs)   bands (ev):

   -10.9079 -10.9075  -8.4253  -8.4247  -7.1479  -7.1463  -4.7567  -4.7558
    -2.8544  -2.8539  -0.9222  -0.9217   1.6903   1.6948   3.6536   3.6584
     7.0630   7.0660   9.5177   9.5214

          k =-0.5165 0.5809-0.0004 (  2359 PWs)   bands (ev):

   -13.9179 -12.9945 -11.9645  -9.2106  -7.2439  -3.0660  -2.3501  -0.9434
    -0.8399  -0.5642  -0.0071   0.1300   1.0136   2.0651   2.6263   3.3246
     7.5544  10.7235  11.4231  12.3095

          k =-0.5162 0.5810 0.6060 (  2350 PWs)   bands (ev):

   -13.2207 -12.3029 -11.2876  -8.5913  -6.7450  -3.3872  -3.2264  -2.1209
    -1.7169  -1.5149  -0.2736   0.1283   0.2167   0.7748   0.9519   4.1079
     7.0623  10.5494  11.5815  12.2592

          k =-0.5159 0.5812 1.2124 (  2344 PWs)   bands (ev):

   -11.1727 -10.2869  -9.3608  -8.1208  -6.7686  -6.4845  -5.8780  -4.3714
    -3.5748  -1.8427  -1.4491  -0.6991   0.8720   2.2585   2.7001   4.1481
     6.9039   7.8088   8.5113  10.5636

          k =-0.5170 0.5805-1.2132 (  2346 PWs)   bands (ev):

   -11.1724 -10.2864  -9.3615  -8.1208  -6.7682  -6.4856  -5.8782  -4.3711
    -3.5741  -1.8430  -1.4499  -0.6984   0.8683   2.2554   2.7022   4.1525
     6.9061   7.8151   8.5055  10.5604

          k =-0.5167 0.5807-0.6068 (  2349 PWs)   bands (ev):

   -13.2205 -12.3027 -11.2879  -8.5913  -6.7455  -3.3861  -3.2264  -2.1219
    -1.7185  -1.5170  -0.2720   0.1296   0.2148   0.7762   0.9508   4.1099
     7.0644  10.5525  11.5886  12.2565

     the Fermi energy is     4.7031 ev

!    total energy              =     -91.15596189 Ry
     Harris-Foulkes estimate   =     -91.15596189 Ry
     estimated scf accuracy    <          5.4E-09 Ry

     The total energy is the sum of the following terms:

     one-electron contribution =     -46.57334260 Ry
     hartree contribution      =      37.23317075 Ry
     xc contribution           =     -27.96062813 Ry
     ewald contribution        =     -53.85609863 Ry
     smearing contrib. (-TS)   =       0.00093672 Ry

     convergence has been achieved in   6 iterations

     Forces acting on atoms (cartesian axes, Ry/au):

     atom    1 type  1   force =    -0.03501794    0.01997137    0.00027347
     atom    2 type  1   force =     0.03494218   -0.01985292   -0.00024740
     atom    3 type  1   force =     0.03493878   -0.02007883   -0.00006370
     atom    4 type  1   force =    -0.03480702    0.01998595    0.00026090
     atom    5 type  1   force =    -0.03493325    0.01996751    0.00009480
     atom    6 type  1   force =     0.03493805   -0.01999412   -0.00028915
     atom    7 type  1   force =     0.03482397   -0.01997364   -0.00010330
     atom    8 type  1   force =    -0.03488477    0.01997469    0.00007439

     Total force =     0.113765     Total SCF correction =     0.000078


     Computing stress (Cartesian axis) and pressure

          total   stress  (Ry/bohr**3)                   (kbar)     P=       -0.20
   0.00022616  -0.00013969   0.00000032           33.27      -20.55        0.05
  -0.00013969   0.00007217  -0.00000128          -20.55       10.62       -0.19
   0.00000032  -0.00000128  -0.00030234            0.05       -0.19      -44.48


     number of scf cycles    =   2
     number of bfgs steps    =   1

     enthalpy old            =     -91.1574533352 Ry
     enthalpy new            =     -91.1559244266 Ry

     CASE: enthalpy_new > enthalpy_old

     new trust radius        =       0.0131816716 bohr
     new conv_thr            =       0.0000000100 Ry

     new unit-cell volume =    550.75070 a.u.^3 (    81.61283 Ang^3 )
     density =      1.95327 g/cm^3

CELL_PARAMETERS (bohr)
  14.180950223   0.323195815  -0.006352543
   0.172288254   8.325689124  -0.002554277
   0.006185039   0.008630464   4.666958213

ATOMIC_POSITIONS (crystal)
C             0.4899641939        0.8023103333        1.1045129185
C             0.1560511474        0.1355684504        0.1046620048
C             0.4062055278        0.8860298309        0.6045078260
C            -0.0102187582        0.3017622027        0.1045415929
C             0.2398428911        0.0519485765        0.6046586208
C             0.6561861394        0.6359659155        1.1046986279
C            -0.0939290953        0.3856234004        0.6045448726
C             0.7398929538        0.5520932903        0.6047035367



     Writing output data file ./pp.save/
     NEW-OLD atomic charge density approx. for the potential
     extrapolated charge   31.98330, renormalised to   32.00000

     total cpu time spent up to now is       14.2 secs

     Self-consistent Calculation

     iteration #  1     ecut=    40.00 Ry     beta= 0.50
     Davidson diagonalization with overlap
     ethr =  1.00E-06,  avg # of iterations =  5.1

     total cpu time spent up to now is       16.1 secs

     total energy              =     -91.15876253 Ry
     Harris-Foulkes estimate   =     -91.17898507 Ry
     estimated scf accuracy    <       0.00069528 Ry

     iteration #  2     ecut=    40.00 Ry     beta= 0.50
     Davidson diagonalization with overlap
     ethr =  2.17E-06,  avg # of iterations =  1.2

     total cpu time spent up to now is       16.8 secs

     total energy              =     -91.15876608 Ry
     Harris-Foulkes estimate   =     -91.15881336 Ry
     estimated scf accuracy    <       0.00008782 Ry

     iteration #  3     ecut=    40.00 Ry     beta= 0.50
     Davidson diagonalization with overlap
     ethr =  2.74E-07,  avg # of iterations =  2.0

     total cpu time spent up to now is       17.7 secs

     total energy              =     -91.15878392 Ry
     Harris-Foulkes estimate   =     -91.15878406 Ry
     estimated scf accuracy    <       0.00000169 Ry

     iteration #  4     ecut=    40.00 Ry     beta= 0.50
     Davidson diagonalization with overlap
     ethr =  5.29E-09,  avg # of iterations =  2.2

     total cpu time spent up to now is       18.7 secs

     total energy              =     -91.15878427 Ry
     Harris-Foulkes estimate   =     -91.15878424 Ry
     estimated scf accuracy    <       0.00000045 Ry

     iteration #  5     ecut=    40.00 Ry     beta= 0.50
     Davidson diagonalization with overlap
     ethr =  1.40E-09,  avg # of iterations =  2.1

     total cpu time spent up to now is       19.7 secs

     total energy              =     -91.15878427 Ry
     Harris-Foulkes estimate   =     -91.15878436 Ry
     estimated scf accuracy    <       0.00000025 Ry

     iteration #  6     ecut=    40.00 Ry     beta= 0.50
     Davidson diagonalization with overlap
     ethr =  7.86E-10,  avg # of iterations =  2.0

     total cpu time spent up to now is       20.6 secs

     End of self-consistent calculation

          k = 0.0000 0.0000 0.0000 (  2365 PWs)   bands (ev):

   -14.0362 -12.5268 -12.5267  -8.6962  -7.7150  -1.9204  -1.9204  -1.6247
    -0.9054  -0.3573  -0.3571   0.4830   0.4831   2.4348   2.5281   2.9205
     6.7999   8.9366  12.2969  12.2986

          k = 0.0003 0.0002 0.6090 (  2359 PWs)   bands (ev):

   -13.3297 -11.8366 -11.8363  -8.0914  -7.1703  -3.3313  -2.6620  -2.6618
    -1.0642  -1.0641  -0.8062   0.2579   0.4391   0.4420   1.0202   3.7848
     6.5964   9.8416  11.4689  11.4728

          k = 0.0005 0.0004 1.2179 (  2351 PWs)   bands (ev):

   -11.2516  -9.8297  -9.8292  -8.0734  -6.3764  -6.3760  -6.2903  -4.6476
    -3.3743  -1.9654  -0.9601  -0.9601   1.5191   2.4931   2.4980   4.6679
     6.3166   8.1036   8.1105  10.2465

          k =-0.0130 0.5692-0.0010 (  2340 PWs)   bands (ev):

   -13.8271 -13.2935 -11.4429 -10.0064  -6.2201  -4.1365  -1.9059  -1.7244
    -0.7350  -0.2515   0.1753   1.3137   1.3694   1.7923   2.1794   2.3330
     8.2750  10.6603  10.8562  12.2679

          k =-0.0127 0.5694 0.6079 (  2364 PWs)   bands (ev):

   -13.1243 -12.5970 -10.7665  -9.3612  -5.7859  -4.0525  -3.1061  -2.3901
    -1.5136  -1.0722  -0.8890  -0.4052   0.3420   1.0479   2.0611   3.1079
     7.8604   9.7027  11.6957  13.1382

          k =-0.0124 0.5695 1.2169 (  2355 PWs)   bands (ev):

   -11.0578 -10.5546  -8.8697  -8.0916  -7.0433  -7.0286  -5.4004  -4.2116
    -3.6285  -2.1196  -1.2824  -0.6747   1.2919   1.4462   3.4959   4.1256
     6.7517   7.2528   9.3149  10.0189

          k =-0.0135 0.5688-1.2189 (  2353 PWs)   bands (ev):

   -11.0572 -10.5546  -8.8697  -8.0922  -7.0433  -7.0291  -5.4004  -4.2112
    -3.6287  -2.1197  -1.2822  -0.6746   1.2866   1.4462   3.4958   4.1307
     6.7565   7.2528   9.3153  10.0139

          k =-0.0132 0.5690-0.6100 (  2357 PWs)   bands (ev):

   -13.1240 -12.5969 -10.7665  -9.3615  -5.7860  -4.0525  -3.1065  -2.3901
    -1.5134  -1.0752  -0.8889  -0.4049   0.3421   1.0480   2.0612   3.1103
     7.8636   9.7028  11.7088  13.1384

          k =-0.5013 0.0104 0.0006 (  2370 PWs)   bands (ev):

   -13.6541 -13.6538 -10.7137 -10.7136  -5.1770  -5.1769  -1.3332  -1.3317
    -0.5383  -0.5381   1.0647   1.0647   1.3849   1.3856   1.8115   1.8115
     9.0959   9.0970   9.8532   9.8561

          k =-0.5010 0.0106 0.6096 (  2358 PWs)   bands (ev):

   -12.9512 -12.9509 -10.0533 -10.0531  -4.8839  -4.8837  -2.8311  -2.8309
    -0.9328  -0.9326  -0.5200  -0.5174   0.8104   0.8105   2.1653   2.1671
     8.6801   8.6824  10.7385  10.7466

          k =-0.5007 0.0107 1.2186 (  2337 PWs)   bands (ev):

   -10.8866 -10.8862  -8.3587  -8.3584  -7.2083  -7.2079  -4.7919  -4.7916
    -2.8490  -2.8488  -0.8872  -0.8870   1.7455   1.7496   3.7275   3.7311
     6.9986   7.0031   9.4562   9.4604

          k =-0.5142 0.5796-0.0004 (  2359 PWs)   bands (ev):

   -13.9185 -12.9999 -11.9751  -9.2682  -7.1782  -3.0120  -2.3491  -0.8529
    -0.8528  -0.5800  -0.0407   0.0809   0.9239   2.2692   2.4308   3.1753
     7.7285  10.7128  11.4618  12.3109

          k =-0.5140 0.5797 0.6086 (  2350 PWs)   bands (ev):

   -13.2163 -12.3033 -11.2931  -8.6431  -6.6609  -3.3027  -3.2574  -2.0683
    -1.7935  -1.5019  -0.3194   0.0358   0.2164   0.7578   1.0666   3.9815
     7.2192  10.6002  11.5861  12.2792

          k =-0.5137 0.5799 1.2175 (  2344 PWs)   bands (ev):

   -11.1507 -10.2660  -9.3345  -8.0316  -6.7828  -6.6046  -5.8927  -4.3300
    -3.6783  -1.7371  -1.4499  -0.6899   0.9242   2.3158   2.7544   4.2689
     6.7734   7.7702   8.4625  10.4795

          k =-0.5148 0.5792-1.2183 (  2346 PWs)   bands (ev):

   -11.1504 -10.2656  -9.3348  -8.0321  -6.7832  -6.6048  -5.8923  -4.3303
    -3.6780  -1.7369  -1.4499  -0.6899   0.9206   2.3119   2.7575   4.2727
     6.7764   7.7752   8.4579  10.4762

          k =-0.5145 0.5794-0.6093 (  2349 PWs)   bands (ev):

   -13.2161 -12.3031 -11.2933  -8.6433  -6.6611  -3.3030  -3.2575  -2.0681
    -1.7938  -1.5038  -0.3193   0.0359   0.2142   0.7596   1.0667   3.9831
     7.2218  10.6025  11.5934  12.2770

     the Fermi energy is     4.8861 ev

!    total energy              =     -91.15878431 Ry
     Harris-Foulkes estimate   =     -91.15878431 Ry
     estimated scf accuracy    <          1.5E-09 Ry

     The total energy is the sum of the following terms:

     one-electron contribution =     -46.60511004 Ry
     hartree contribution      =      37.25579820 Ry
     xc contribution           =     -27.96330494 Ry
     ewald contribution        =     -53.84662790 Ry
     smearing contrib. (-TS)   =       0.00046037 Ry

     convergence has been achieved in   6 iterations

     Forces acting on atoms (cartesian axes, Ry/au):

     atom    1 type  1   force =    -0.00091775    0.00058281    0.00013836
     atom    2 type  1   force =     0.00097692   -0.00054373   -0.00010746
     atom    3 type  1   force =     0.00082934   -0.00074392    0.00014446
     atom    4 type  1   force =    -0.00086984    0.00068117    0.00011057
     atom    5 type  1   force =    -0.00087035    0.00064904   -0.00010829
     atom    6 type  1   force =     0.00089360   -0.00058827   -0.00014167
     atom    7 type  1   force =     0.00088943   -0.00065230    0.00011475
     atom    8 type  1   force =    -0.00093134    0.00061519   -0.00015072

     Total force =     0.003132     Total SCF correction =     0.000024


     Computing stress (Cartesian axis) and pressure

          total   stress  (Ry/bohr**3)                   (kbar)     P=       -0.19
  -0.00003239   0.00001037  -0.00000001           -4.76        1.53       -0.00
   0.00001037  -0.00001424  -0.00000013            1.53       -2.10       -0.02
  -0.00000001  -0.00000013   0.00004270           -0.00       -0.02        6.28


     number of scf cycles    =   3
     number of bfgs steps    =   1

     enthalpy old            =     -91.1574533352 Ry
     enthalpy new            =     -91.1587468688 Ry

     CASE: enthalpy_new < enthalpy_old

     new trust radius        =       0.0050769738 bohr
     new conv_thr            =            1.0E-10 Ry

     new unit-cell volume =    550.68713 a.u.^3 (    81.60341 Ang^3 )
     density =      1.95349 g/cm^3

CELL_PARAMETERS (bohr)
  14.169256105   0.326865650  -0.006362882
   0.174371251   8.322693752  -0.002585437
   0.006181344   0.008613262   4.672006297

ATOMIC_POSITIONS (crystal)
C             0.4898997540        0.8023817880        1.1045430765
C             0.1561197535        0.1355015891        0.1046386064
C             0.4062638537        0.8859389307        0.6045394521
C            -0.0102799189        0.3018455171        0.1045656879
C             0.2397817617        0.0520280308        0.6046348894
C             0.6562488684        0.6358938602        1.1046677452
C            -0.0938665960        0.3855435002        0.6045700196
C             0.7398275237        0.5521687840        0.6046705227



     Writing output data file ./pp.save/
     NEW-OLD atomic charge density approx. for the potential
     extrapolated charge   31.99631, renormalised to   32.00000

     total cpu time spent up to now is       20.6 secs

     Self-consistent Calculation

     iteration #  1     ecut=    40.00 Ry     beta= 0.50
     Davidson diagonalization with overlap
     ethr =  1.00E-06,  avg # of iterations =  2.0

     Threshold (ethr) on eigenvalues was too large:
     Diagonalizing with lowered threshold

     Davidson diagonalization with overlap
     ethr =  2.96E-09,  avg # of iterations =  4.0

     total cpu time spent up to now is       23.2 secs

     total energy              =     -91.15880696 Ry
     Harris-Foulkes estimate   =     -91.16319863 Ry
     estimated scf accuracy    <       0.00000092 Ry

     iteration #  2     ecut=    40.00 Ry     beta= 0.50
     Davidson diagonalization with overlap
     ethr =  2.87E-09,  avg # of iterations =  2.0

     total cpu time spent up to now is       24.3 secs

     total energy              =     -91.15880732 Ry
     Harris-Foulkes estimate   =     -91.15880739 Ry
     estimated scf accuracy    <       0.00000028 Ry

     iteration #  3     ecut=    40.00 Ry     beta= 0.50
     Davidson diagonalization with overlap
     ethr =  8.81E-10,  avg # of iterations =  1.7

     total cpu time spent up to now is       25.2 secs

     total energy              =     -91.15880735 Ry
     Harris-Foulkes estimate   =     -91.15880734 Ry
     estimated scf accuracy    <       0.00000004 Ry

     iteration #  4     ecut=    40.00 Ry     beta= 0.50
     Davidson diagonalization with overlap
     ethr =  1.31E-10,  avg # of iterations =  2.0

     total cpu time spent up to now is       26.3 secs

     total energy              =     -91.15880736 Ry
     Harris-Foulkes estimate   =     -91.15880736 Ry
     estimated scf accuracy    <          4.0E-09 Ry

     iteration #  5     ecut=    40.00 Ry     beta= 0.50
     Davidson diagonalization with overlap
     ethr =  1.25E-11,  avg # of iterations =  2.0

     total cpu time spent up to now is       27.5 secs

     total energy              =     -91.15880736 Ry
     Harris-Foulkes estimate   =     -91.15880736 Ry
     estimated scf accuracy    <          1.3E-09 Ry

     iteration #  6     ecut=    40.00 Ry     beta= 0.50
     Davidson diagonalization with overlap
     ethr =  4.02E-12,  avg # of iterations =  2.0

     total cpu time spent up to now is       28.7 secs

     total energy              =     -91.15880736 Ry
     Harris-Foulkes estimate   =     -91.15880736 Ry
     estimated scf accuracy    <          1.6E-10 Ry

     iteration #  7     ecut=    40.00 Ry     beta= 0.50
     Davidson diagonalization with overlap
     ethr =  5.14E-13,  avg # of iterations =  2.0

     total cpu time spent up to now is       30.0 secs

     End of self-consistent calculation

          k = 0.0000 0.0000 0.0000 (  2365 PWs)   bands (ev):

   -14.0337 -12.5211 -12.5211  -8.6775  -7.7073  -1.8988  -1.8988  -1.6216
    -0.9332  -0.3522  -0.3520   0.4582   0.4582   2.4568   2.5079   2.9316
     6.8124   8.9394  12.3074  12.3086

          k = 0.0003 0.0002 0.6083 (  2359 PWs)   bands (ev):

   -13.3289 -11.8326 -11.8323  -8.0745  -7.1656  -3.3499  -2.6682  -2.6678
    -1.0553  -1.0552  -0.8048   0.2474   0.4424   0.4453   1.0330   3.7942
     6.6021   9.8421  11.4675  11.4714

          k = 0.0005 0.0004 1.2166 (  2351 PWs)   bands (ev):

   -11.2558  -9.8311  -9.8306  -8.0852  -6.3829  -6.3824  -6.2790  -4.6412
    -3.3721  -1.9591  -0.9434  -0.9433   1.5163   2.4913   2.4963   4.6629
     6.3209   8.0974   8.1043  10.2442

          k =-0.0131 0.5694-0.0010 (  2340 PWs)   bands (ev):

   -13.8242 -13.2894 -11.4349  -9.9948  -6.2051  -4.1177  -1.9032  -1.7214
    -0.7624  -0.2779   0.1983   1.3215   1.3465   1.8149   2.1584   2.3429
     8.2873  10.6711  10.8606  12.2757

          k =-0.0129 0.5696 0.6073 (  2364 PWs)   bands (ev):

   -13.1231 -12.5946 -10.7602  -9.3515  -5.7754  -4.0462  -3.1227  -2.3976
    -1.5234  -1.0712  -0.8877  -0.4143   0.3566   1.0606   2.0669   3.1157
     7.8647   9.7031  11.6979  13.1349

          k =-0.0126 0.5698 1.2156 (  2355 PWs)   bands (ev):

   -11.0616 -10.5573  -8.8702  -8.1000  -7.0498  -7.0248  -5.4045  -4.2123
    -3.6173  -2.1045  -1.2726  -0.6601   1.2884   1.4430   3.4939   4.1220
     6.7522   7.2485   9.3106  10.0160

          k =-0.0137 0.5690-1.2176 (  2353 PWs)   bands (ev):

   -11.0610 -10.5573  -8.8702  -8.1006  -7.0498  -7.0252  -5.4045  -4.2119
    -3.6176  -2.1045  -1.2724  -0.6601   1.2832   1.4430   3.4937   4.1271
     6.7571   7.2485   9.3111  10.0110

          k =-0.0134 0.5692-0.6093 (  2357 PWs)   bands (ev):

   -13.1228 -12.5946 -10.7601  -9.3517  -5.7755  -4.0462  -3.1231  -2.3976
    -1.5232  -1.0742  -0.8876  -0.4140   0.3566   1.0607   2.0669   3.1181
     7.8679   9.7032  11.7109  13.1351

          k =-0.5017 0.0105 0.0006 (  2370 PWs)   bands (ev):

   -13.6508 -13.6506 -10.7040 -10.7038  -5.1599  -5.1598  -1.3296  -1.3282
    -0.5653  -0.5652   1.0876   1.0877   1.3931   1.3938   1.7895   1.7897
     9.1098   9.1109   9.8576   9.8604

          k =-0.5014 0.0107 0.6089 (  2358 PWs)   bands (ev):

   -12.9496 -12.9493 -10.0453 -10.0451  -4.8742  -4.8740  -2.8444  -2.8442
    -0.9423  -0.9420  -0.5182  -0.5156   0.8245   0.8246   2.1714   2.1732
     8.6853   8.6876  10.7406  10.7487

          k =-0.5011 0.0109 1.2172 (  2337 PWs)   bands (ev):

   -10.8900 -10.8896  -8.3617  -8.3614  -7.2114  -7.2110  -4.7943  -4.7940
    -2.8355  -2.8354  -0.8748  -0.8747   1.7430   1.7471   3.7260   3.7295
     6.9961   7.0005   9.4515   9.4557

          k =-0.5148 0.5799-0.0004 (  2359 PWs)   bands (ev):

   -13.9158 -12.9953 -11.9682  -9.2539  -7.1661  -2.9915  -2.3472  -0.8805
    -0.8304  -0.5751  -0.0347   0.0551   0.9000   2.2913   2.4103   3.1863
     7.7399  10.7183  11.4747  12.3162

          k =-0.5145 0.5801 0.6079 (  2350 PWs)   bands (ev):

   -13.2152 -12.3003 -11.2879  -8.6307  -6.6521  -3.3035  -3.2754  -2.0771
    -1.7918  -1.5016  -0.3064   0.0264   0.2196   0.7620   1.0786   3.9904
     7.2224  10.6021  11.5892  12.2757

          k =-0.5143 0.5803 1.2162 (  2344 PWs)   bands (ev):

   -11.1547 -10.2682  -9.3351  -8.0427  -6.7898  -6.5958  -5.8980  -4.3216
    -3.6772  -1.7297  -1.4334  -0.6738   0.9200   2.3141   2.7531   4.2623
     6.7772   7.7652   8.4565  10.4776

          k =-0.5153 0.5795-1.2170 (  2346 PWs)   bands (ev):

   -11.1543 -10.2678  -9.3355  -8.0432  -6.7902  -6.5960  -5.8977  -4.3219
    -3.6769  -1.7295  -1.4335  -0.6737   0.9164   2.3103   2.7562   4.2662
     6.7801   7.7702   8.4519  10.4742

          k =-0.5151 0.5797-0.6087 (  2349 PWs)   bands (ev):

   -13.2150 -12.3001 -11.2881  -8.6309  -6.6522  -3.3037  -3.2756  -2.0768
    -1.7921  -1.5036  -0.3063   0.0266   0.2174   0.7637   1.0787   3.9920
     7.2250  10.6044  11.5964  12.2735

     the Fermi energy is     4.8815 ev

!    total energy              =     -91.15880736 Ry
     Harris-Foulkes estimate   =     -91.15880736 Ry
     estimated scf accuracy    <          1.2E-12 Ry

     The total energy is the sum of the following terms:

     one-electron contribution =     -46.55161196 Ry
     hartree contribution      =      37.23044496 Ry
     xc contribution           =     -27.96219528 Ry
     ewald contribution        =     -53.87590392 Ry
     smearing contrib. (-TS)   =       0.00045885 Ry

     convergence has been achieved in   7 iterations

     Forces acting on atoms (cartesian axes, Ry/au):

     atom    1 type  1   force =     0.00021754   -0.00015940    0.00009165
     atom    2 type  1   force =    -0.00023530    0.00020622   -0.00006969
     atom    3 type  1   force =    -0.00031839    0.00002831    0.00009411
     atom    4 type  1   force =     0.00032157   -0.00008613    0.00007543
     atom    5 type  1   force =     0.00028830   -0.00009958   -0.00006278
     atom    6 type  1   force =    -0.00025819    0.00012645   -0.00009773
     atom    7 type  1   force =    -0.00028580    0.00012119    0.00006374
     atom    8 type  1   force =     0.00027027   -0.00013706   -0.00009474

     Total force =     0.000895     Total SCF correction =     0.000002


     Computing stress (Cartesian axis) and pressure

          total   stress  (Ry/bohr**3)                   (kbar)     P=       -0.65
  -0.00000015  -0.00000789  -0.00000011           -0.02       -1.16       -0.02
  -0.00000789  -0.00000347  -0.00000021           -1.16       -0.51       -0.03
  -0.00000011  -0.00000021  -0.00000972           -0.02       -0.03       -1.43


     number of scf cycles    =   4
     number of bfgs steps    =   2

     enthalpy old            =     -91.1587468688 Ry
     enthalpy new            =     -91.1587699226 Ry

     CASE: enthalpy_new < enthalpy_old

     new trust radius        =       0.0008655191 bohr
     new conv_thr            =            1.0E-10 Ry

     new unit-cell volume =    550.52699 a.u.^3 (    81.57968 Ang^3 )
     density =      1.95406 g/cm^3

CELL_PARAMETERS (bohr)
  14.168880359   0.324512471  -0.006397357
   0.173004397   8.321968436  -0.002623968
   0.006168641   0.008590042   4.671145004

ATOMIC_POSITIONS (crystal)
C             0.4899089240        0.8023692324        1.1045608039
C             0.1561095813        0.1355190967        0.1046251052
C             0.4062486134        0.8859377241        0.6045575702
C            -0.0102645076        0.3018405601        0.1045802799
C             0.2397952045        0.0520216866        0.6046227424
C             0.6562372526        0.6359031184        1.1046488729
C            -0.0938798822        0.3855520332        0.6045823818
C             0.7398398141        0.5521585485        0.6046522436



     Writing output data file ./pp.save/
     NEW-OLD atomic charge density approx. for the potential
     extrapolated charge   31.99069, renormalised to   32.00000

     total cpu time spent up to now is       30.1 secs

     Self-consistent Calculation

     iteration #  1     ecut=    40.00 Ry     beta= 0.50
     Davidson diagonalization with overlap
     ethr =  1.00E-06,  avg # of iterations =  2.0

     Threshold (ethr) on eigenvalues was too large:
     Diagonalizing with lowered threshold

     Davidson diagonalization with overlap
     ethr =  3.87E-09,  avg # of iterations =  1.9

     total cpu time spent up to now is       32.4 secs

     total energy              =     -91.15880718 Ry
     Harris-Foulkes estimate   =     -91.16986593 Ry
     estimated scf accuracy    <       0.00000126 Ry

     iteration #  2     ecut=    40.00 Ry     beta= 0.50
     Davidson diagonalization with overlap
     ethr =  3.94E-09,  avg # of iterations =  3.0

     total cpu time spent up to now is       34.2 secs

     total energy              =     -91.15880975 Ry
     Harris-Foulkes estimate   =     -91.15881001 Ry
     estimated scf accuracy    <       0.00000078 Ry

     iteration #  3     ecut=    40.00 Ry     beta= 0.50
     Davidson diagonalization with overlap
     ethr =  2.44E-09,  avg # of iterations =  1.0

     total cpu time spent up to now is       35.2 secs

     total energy              =     -91.15880960 Ry
     Harris-Foulkes estimate   =     -91.15880978 Ry
     estimated scf accuracy    <       0.00000027 Ry

     iteration #  4     ecut=    40.00 Ry     beta= 0.50
     Davidson diagonalization with overlap
     ethr =  8.46E-10,  avg # of iterations =  2.0

     total cpu time spent up to now is       36.7 secs

     total energy              =     -91.15880966 Ry
     Harris-Foulkes estimate   =     -91.15880966 Ry
     estimated scf accuracy    <       0.00000001 Ry

     iteration #  5     ecut=    40.00 Ry     beta= 0.50
     Davidson diagonalization with overlap
     ethr =  3.95E-11,  avg # of iterations =  1.4

     total cpu time spent up to now is       37.8 secs

     total energy              =     -91.15880966 Ry
     Harris-Foulkes estimate   =     -91.15880966 Ry
     estimated scf accuracy    <          3.7E-09 Ry

     iteration #  6     ecut=    40.00 Ry     beta= 0.50
     Davidson diagonalization with overlap
     ethr =  1.16E-11,  avg # of iterations =  1.0

     total cpu time spent up to now is       38.9 secs

     total energy              =     -91.15880966 Ry
     Harris-Foulkes estimate   =     -91.15880966 Ry
     estimated scf accuracy    <          1.5E-09 Ry

     iteration #  7     ecut=    40.00 Ry     beta= 0.50
     Davidson diagonalization with overlap
     ethr =  4.66E-12,  avg # of iterations =  2.0

     total cpu time spent up to now is       40.4 secs

     total energy              =     -91.15880966 Ry
     Harris-Foulkes estimate   =     -91.15880966 Ry
     estimated scf accuracy    <          1.1E-10 Ry

     iteration #  8     ecut=    40.00 Ry     beta= 0.50
     Davidson diagonalization with overlap
     ethr =  3.40E-13,  avg # of iterations =  2.0

     total cpu time spent up to now is       42.1 secs

     End of self-consistent calculation

          k = 0.0000 0.0000 0.0000 (  2365 PWs)   bands (ev):

   -14.0319 -12.5195 -12.5195  -8.6772  -7.7062  -1.8993  -1.8993  -1.6190
    -0.9263  -0.3505  -0.3504   0.4649   0.4649   2.4562   2.5144   2.9326
     6.8128   8.9428  12.3115  12.3125

          k = 0.0003 0.0002 0.6084 (  2359 PWs)   bands (ev):

   -13.3268 -11.8307 -11.8304  -8.0740  -7.1640  -3.3444  -2.6645  -2.6642
    -1.0538  -1.0536  -0.8019   0.2524   0.4444   0.4473   1.0337   3.7955
     6.6037   9.8458  11.4711  11.4750

          k = 0.0005 0.0004 1.2168 (  2351 PWs)   bands (ev):

   -11.2528  -9.8283  -9.8279  -8.0810  -6.3792  -6.3788  -6.2775  -4.6398
    -3.3692  -1.9577  -0.9431  -0.9430   1.5198   2.4942   2.4991   4.6667
     6.3232   8.1014   8.1083  10.2478

          k =-0.0130 0.5694-0.0010 (  2340 PWs)   bands (ev):

   -13.8223 -13.2876 -11.4337  -9.9940  -6.2048  -4.1178  -1.9012  -1.7199
    -0.7555  -0.2711   0.1977   1.3237   1.3531   1.8143   2.1649   2.3446
     8.2883  10.6731  10.8647  12.2783

          k =-0.0128 0.5696 0.6074 (  2364 PWs)   bands (ev):

   -13.1209 -12.5925 -10.7587  -9.3503  -5.7743  -4.0444  -3.1176  -2.3937
    -1.5191  -1.0689  -0.8859  -0.4099   0.3573   1.0615   2.0693   3.1176
     7.8669   9.7063  11.7023  13.1393

          k =-0.0125 0.5698 1.2158 (  2355 PWs)   bands (ev):

   -11.0586 -10.5544  -8.8676  -8.0962  -7.0462  -7.0226  -5.4012  -4.2093
    -3.6164  -2.1040  -1.2714  -0.6596   1.2915   1.4456   3.4971   4.1253
     6.7555   7.2524   9.3150  10.0200

          k =-0.0136 0.5691-1.2179 (  2353 PWs)   bands (ev):

   -11.0580 -10.5544  -8.8676  -8.0967  -7.0462  -7.0230  -5.4012  -4.2089
    -3.6166  -2.1041  -1.2712  -0.6595   1.2863   1.4456   3.4969   4.1304
     6.7603   7.2524   9.3155  10.0150

          k =-0.0133 0.5693-0.6094 (  2357 PWs)   bands (ev):

   -13.1206 -12.5924 -10.7587  -9.3505  -5.7745  -4.0444  -3.1179  -2.3937
    -1.5189  -1.0718  -0.8858  -0.4096   0.3574   1.0616   2.0694   3.1201
     7.8702   9.7064  11.7153  13.1394

          k =-0.5017 0.0104 0.0006 (  2370 PWs)   bands (ev):

   -13.6490 -13.6488 -10.7028 -10.7027  -5.1598  -5.1597  -1.3273  -1.3259
    -0.5584  -0.5583   1.0869   1.0870   1.3942   1.3949   1.7961   1.7962
     9.1107   9.1118   9.8613   9.8641

          k =-0.5014 0.0106 0.6091 (  2358 PWs)   bands (ev):

   -12.9475 -12.9472 -10.0438 -10.0436  -4.8730  -4.8728  -2.8397  -2.8395
    -0.9379  -0.9376  -0.5155  -0.5130   0.8252   0.8254   2.1729   2.1747
     8.6876   8.6899  10.7446  10.7526

          k =-0.5011 0.0108 1.2175 (  2337 PWs)   bands (ev):

   -10.8871 -10.8867  -8.3586  -8.3583  -7.2083  -7.2079  -4.7911  -4.7908
    -2.8349  -2.8347  -0.8739  -0.8738   1.7463   1.7504   3.7288   3.7323
     6.9996   7.0041   9.4553   9.4595

          k =-0.5147 0.5799-0.0004 (  2359 PWs)   bands (ev):

   -13.9138 -12.9937 -11.9667  -9.2533  -7.1656  -2.9918  -2.3455  -0.8736
    -0.8310  -0.5728  -0.0333   0.0619   0.9067   2.2907   2.4168   3.1881
     7.7414  10.7212  11.4759  12.3216

          k =-0.5145 0.5801 0.6080 (  2350 PWs)   bands (ev):

   -13.2130 -12.2984 -11.2861  -8.6298  -6.6510  -3.3006  -3.2700  -2.0729
    -1.7893  -1.4997  -0.3054   0.0310   0.2222   0.7637   1.0795   3.9925
     7.2249  10.6051  11.5927  12.2796

          k =-0.5142 0.5802 1.2164 (  2344 PWs)   bands (ev):

   -11.1516 -10.2654  -9.3324  -8.0385  -6.7861  -6.5942  -5.8945  -4.3205
    -3.6744  -1.7283  -1.4331  -0.6734   0.9228   2.3174   2.7558   4.2658
     6.7802   7.7695   8.4606  10.4816

          k =-0.5153 0.5795-1.2172 (  2346 PWs)   bands (ev):

   -11.1512 -10.2651  -9.3328  -8.0389  -6.7865  -6.5944  -5.8942  -4.3207
    -3.6741  -1.7281  -1.4332  -0.6733   0.9192   2.3136   2.7589   4.2696
     6.7831   7.7744   8.4560  10.4783

          k =-0.5150 0.5797-0.6088 (  2349 PWs)   bands (ev):

   -13.2128 -12.2982 -11.2863  -8.6300  -6.6511  -3.3009  -3.2702  -2.0727
    -1.7895  -1.5016  -0.3053   0.0312   0.2200   0.7655   1.0796   3.9941
     7.2276  10.6074  11.5998  12.2774

     the Fermi energy is     4.8853 ev

!    total energy              =     -91.15880966 Ry
     Harris-Foulkes estimate   =     -91.15880966 Ry
     estimated scf accuracy    <          2.0E-12 Ry

     The total energy is the sum of the following terms:

     one-electron contribution =     -46.51719990 Ry
     hartree contribution      =      37.21656585 Ry
     xc contribution           =     -27.96290749 Ry
     ewald contribution        =     -53.89572578 Ry
     smearing contrib. (-TS)   =       0.00045767 Ry

     convergence has been achieved in   8 iterations

     Forces acting on atoms (cartesian axes, Ry/au):

     atom    1 type  1   force =     0.00000402   -0.00006412    0.00006177
     atom    2 type  1   force =     0.00003061    0.00006383   -0.00004127
     atom    3 type  1   force =    -0.00007781   -0.00006662    0.00006774
     atom    4 type  1   force =     0.00003492    0.00005130    0.00004322
     atom    5 type  1   force =     0.00003246    0.00002252   -0.00004385
     atom    6 type  1   force =    -0.00003566    0.00000627   -0.00006381
     atom    7 type  1   force =    -0.00000507   -0.00000474    0.00004809
     atom    8 type  1   force =     0.00001653   -0.00000844   -0.00007189

     Total force =     0.000228     Total SCF correction =     0.000000


     Computing stress (Cartesian axis) and pressure

          total   stress  (Ry/bohr**3)                   (kbar)     P=       -0.37
  -0.00000286  -0.00000632  -0.00000012           -0.42       -0.93       -0.02
  -0.00000632  -0.00000429  -0.00000018           -0.93       -0.63       -0.03
  -0.00000012  -0.00000018  -0.00000037           -0.02       -0.03       -0.05


     number of scf cycles    =   5
     number of bfgs steps    =   3

     enthalpy old            =     -91.1587699226 Ry
     enthalpy new            =     -91.1587722326 Ry

     CASE: enthalpy_new < enthalpy_old

     new trust radius        =       0.0019042168 bohr
     new conv_thr            =            1.0E-10 Ry

     new unit-cell volume =    550.25755 a.u.^3 (    81.53976 Ang^3 )
     density =      1.95502 g/cm^3

CELL_PARAMETERS (bohr)
  14.166577076   0.319709940  -0.006485527
   0.170208318   8.319990761  -0.002708226
   0.006136866   0.008539512   4.670660338

ATOMIC_POSITIONS (crystal)
C             0.4899143770        0.8023511020        1.1045937593
C             0.1561070421        0.1355407903        0.1046017776
C             0.4062313720        0.8859229966        0.6045927191
C            -0.0102515469        0.3018480474        0.1046050405
C             0.2398065681        0.0520231275        0.6045995540
C             0.6562269059        0.6359090449        1.1046144259
C            -0.0938883621        0.3855551017        0.6046070941
C             0.7398486440        0.5521517896        0.6046156293



     Writing output data file ./pp.save/
     NEW-OLD atomic charge density approx. for the potential
     extrapolated charge   31.98433, renormalised to   32.00000

     total cpu time spent up to now is       42.2 secs

     Self-consistent Calculation

     iteration #  1     ecut=    40.00 Ry     beta= 0.50
     Davidson diagonalization with overlap
     ethr =  1.00E-06,  avg # of iterations =  2.0

     Threshold (ethr) on eigenvalues was too large:
     Diagonalizing with lowered threshold

     Davidson diagonalization with overlap
     ethr =  9.28E-09,  avg # of iterations =  1.5

     total cpu time spent up to now is       45.1 secs

     total energy              =     -91.15880581 Ry
     Harris-Foulkes estimate   =     -91.17738317 Ry
     estimated scf accuracy    <       0.00000300 Ry

     iteration #  2     ecut=    40.00 Ry     beta= 0.50
     Davidson diagonalization with overlap
     ethr =  9.37E-09,  avg # of iterations =  3.0

     total cpu time spent up to now is       47.3 secs

     total energy              =     -91.15881277 Ry
     Harris-Foulkes estimate   =     -91.15881353 Ry
     estimated scf accuracy    <       0.00000237 Ry

     iteration #  3     ecut=    40.00 Ry     beta= 0.50
     Davidson diagonalization with overlap
     ethr =  7.39E-09,  avg # of iterations =  1.0

     total cpu time spent up to now is       48.5 secs

     total energy              =     -91.15881226 Ry
     Harris-Foulkes estimate   =     -91.15881284 Ry
     estimated scf accuracy    <       0.00000088 Ry

     iteration #  4     ecut=    40.00 Ry     beta= 0.50
     Davidson diagonalization with overlap
     ethr =  2.75E-09,  avg # of iterations =  2.0

     total cpu time spent up to now is       50.4 secs

     total energy              =     -91.15881246 Ry
     Harris-Foulkes estimate   =     -91.15881248 Ry
     estimated scf accuracy    <       0.00000005 Ry

     iteration #  5     ecut=    40.00 Ry     beta= 0.50
     Davidson diagonalization with overlap
     ethr =  1.65E-10,  avg # of iterations =  1.2

     total cpu time spent up to now is       51.7 secs

     total energy              =     -91.15881246 Ry
     Harris-Foulkes estimate   =     -91.15881246 Ry
     estimated scf accuracy    <       0.00000001 Ry

     iteration #  6     ecut=    40.00 Ry     beta= 0.50
     Davidson diagonalization with overlap
     ethr =  4.27E-11,  avg # of iterations =  1.1

     total cpu time spent up to now is       53.1 secs

     total energy              =     -91.15881246 Ry
     Harris-Foulkes estimate   =     -91.15881246 Ry
     estimated scf accuracy    <          5.1E-09 Ry

     iteration #  7     ecut=    40.00 Ry     beta= 0.50
     Davidson diagonalization with overlap
     ethr =  1.59E-11,  avg # of iterations =  2.0

     total cpu time spent up to now is       55.1 secs

     End of self-consistent calculation

          k = 0.0000 0.0000 0.0000 (  2365 PWs)   bands (ev):

   -14.0272 -12.5149 -12.5149  -8.6739  -7.7019  -1.8968  -1.8968  -1.6127
    -0.9182  -0.3463  -0.3462   0.4727   0.4727   2.4584   2.5217   2.9355
     6.8150   8.9497  12.3207  12.3212

          k = 0.0003 0.0002 0.6085 (  2359 PWs)   bands (ev):

   -13.3219 -11.8260 -11.8257  -8.0705  -7.1595  -3.3373  -2.6589  -2.6585
    -1.0497  -1.0496  -0.7954   0.2587   0.4488   0.4516   1.0370   3.7985
     6.6072   9.8528  11.4759  11.4798

          k = 0.0005 0.0004 1.2169 (  2351 PWs)   bands (ev):

   -11.2474  -9.8230  -9.8226  -8.0748  -6.3734  -6.3730  -6.2735  -4.6353
    -3.3642  -1.9534  -0.9400  -0.9399   1.5264   2.4991   2.5039   4.6727
     6.3268   8.1067   8.1134  10.2520

          k =-0.0129 0.5696-0.0010 (  2340 PWs)   bands (ev):

   -13.8174 -13.2826 -11.4296  -9.9901  -6.2013  -4.1150  -1.8963  -1.7165
    -0.7474  -0.2631   0.2000   1.3293   1.3606   1.8166   2.1723   2.3489
     8.2912  10.6773  10.8737  12.2841

          k =-0.0126 0.5698 0.6074 (  2364 PWs)   bands (ev):

   -13.1159 -12.5874 -10.7544  -9.3463  -5.7705  -4.0402  -3.1106  -2.3877
    -1.5131  -1.0639  -0.8822  -0.4039   0.3608   1.0650   2.0750   3.1221
     7.8709   9.7110  11.7113  13.1447

          k =-0.0123 0.5700 1.2159 (  2355 PWs)   bands (ev):

   -11.0530 -10.5488  -8.8626  -8.0903  -7.0402  -7.0179  -5.3958  -4.2042
    -3.6126  -2.1007  -1.2675  -0.6562   1.2969   1.4499   3.5026   4.1307
     6.7604   7.2577   9.3212  10.0253

          k =-0.0134 0.5692-1.2180 (  2353 PWs)   bands (ev):

   -11.0525 -10.5488  -8.8626  -8.0909  -7.0402  -7.0183  -5.3958  -4.2038
    -3.6128  -2.1007  -1.2673  -0.6562   1.2917   1.4499   3.5025   4.1357
     6.7652   7.2577   9.3216  10.0204

          k =-0.0131 0.5694-0.6095 (  2357 PWs)   bands (ev):

   -13.1156 -12.5873 -10.7544  -9.3465  -5.7706  -4.0403  -3.1109  -2.3877
    -1.5129  -1.0668  -0.8821  -0.4036   0.3608   1.0651   2.0751   3.1245
     7.8741   9.7111  11.7241  13.1449

          k =-0.5018 0.0103 0.0006 (  2370 PWs)   bands (ev):

   -13.6443 -13.6441 -10.6985 -10.6985  -5.1566  -5.1566  -1.3217  -1.3203
    -0.5504  -0.5503   1.0892   1.0893   1.3973   1.3979   1.8036   1.8037
     9.1136   9.1146   9.8693   9.8719

          k =-0.5015 0.0105 0.6091 (  2358 PWs)   bands (ev):

   -12.9426 -12.9424 -10.0394 -10.0392  -4.8690  -4.8689  -2.8331  -2.8329
    -0.9318  -0.9315  -0.5098  -0.5073   0.8286   0.8287   2.1762   2.1780
     8.6917   8.6940  10.7526  10.7605

          k =-0.5012 0.0106 1.2176 (  2337 PWs)   bands (ev):

   -10.8817 -10.8813  -8.3532  -8.3529  -7.2028  -7.2024  -4.7856  -4.7853
    -2.8313  -2.8311  -0.8703  -0.8702   1.7522   1.7563   3.7335   3.7370
     7.0048   7.0092   9.4599   9.4640

          k =-0.5146 0.5798-0.0004 (  2359 PWs)   bands (ev):

   -13.9087 -12.9891 -11.9622  -9.2498  -7.1620  -2.9890  -2.3416  -0.8654
    -0.8286  -0.5670  -0.0295   0.0698   0.9144   2.2930   2.4241   3.1926
     7.7458  10.7277  11.4784  12.3336

          k =-0.5143 0.5800 0.6081 (  2350 PWs)   bands (ev):

   -13.2077 -12.2937 -11.2815  -8.6262  -6.6471  -3.2956  -3.2629  -2.0670
    -1.7843  -1.4956  -0.3018   0.0371   0.2280   0.7677   1.0830   3.9971
     7.2298  10.6095  11.5993  12.2844

          k =-0.5141 0.5802 1.2166 (  2344 PWs)   bands (ev):

   -11.1459 -10.2602  -9.3272  -8.0322  -6.7803  -6.5901  -5.8888  -4.3164
    -3.6694  -1.7242  -1.4299  -0.6702   0.9273   2.3233   2.7605   4.2709
     6.7854   7.7754   8.4658  10.4871

          k =-0.5152 0.5794-1.2173 (  2346 PWs)   bands (ev):

   -11.1455 -10.2598  -9.3275  -8.0326  -6.7807  -6.5903  -5.8884  -4.3166
    -3.6691  -1.7241  -1.4299  -0.6701   0.9238   2.3196   2.7636   4.2747
     6.7882   7.7803   8.4613  10.4838

          k =-0.5149 0.5796-0.6089 (  2349 PWs)   bands (ev):

   -13.2075 -12.2935 -11.2816  -8.6263  -6.6472  -3.2958  -3.2630  -2.0667
    -1.7846  -1.4975  -0.3017   0.0373   0.2259   0.7694   1.0831   3.9987
     7.2323  10.6118  11.6064  12.2822

     the Fermi energy is     4.8918 ev

!    total energy              =     -91.15881246 Ry
     Harris-Foulkes estimate   =     -91.15881246 Ry
     estimated scf accuracy    <          7.9E-11 Ry

     The total energy is the sum of the following terms:

     one-electron contribution =     -46.42415682 Ry
     hartree contribution      =      37.17569797 Ry
     xc contribution           =     -27.96286898 Ry
     ewald contribution        =     -53.94793924 Ry
     smearing contrib. (-TS)   =       0.00045461 Ry

     convergence has been achieved in   7 iterations

     Forces acting on atoms (cartesian axes, Ry/au):

     atom    1 type  1   force =    -0.00020028    0.00001666    0.00001381
     atom    2 type  1   force =     0.00017317   -0.00001404   -0.00000314
     atom    3 type  1   force =     0.00014143   -0.00012286    0.00000932
     atom    4 type  1   force =    -0.00012115    0.00010253    0.00000505
     atom    5 type  1   force =    -0.00014674    0.00009103    0.00000438
     atom    6 type  1   force =     0.00015328   -0.00009984   -0.00001570
     atom    7 type  1   force =     0.00015799   -0.00004265   -0.00000323
     atom    8 type  1   force =    -0.00015771    0.00006916   -0.00001049

     Total force =     0.000501     Total SCF correction =     0.000004


     Computing stress (Cartesian axis) and pressure

          total   stress  (Ry/bohr**3)                   (kbar)     P=       -0.41
  -0.00000697  -0.00000395  -0.00000007           -1.03       -0.58       -0.01
  -0.00000395  -0.00000554  -0.00000020           -0.58       -0.81       -0.03
  -0.00000007  -0.00000020   0.00000416           -0.01       -0.03        0.61


     number of scf cycles    =   6
     number of bfgs steps    =   4

     enthalpy old            =     -91.1587722326 Ry
     enthalpy new            =     -91.1587750507 Ry

     CASE: enthalpy_new < enthalpy_old

     new trust radius        =       0.0028570304 bohr
     new conv_thr            =            1.0E-10 Ry

     new unit-cell volume =    549.80297 a.u.^3 (    81.47239 Ang^3 )
     density =      1.95663 g/cm^3

CELL_PARAMETERS (bohr)
  14.161676129   0.312953121  -0.006606470
   0.166267131   8.316673776  -0.002844408
   0.006092744   0.008458102   4.670185679

ATOMIC_POSITIONS (crystal)
C             0.4899127893        0.8023291800        1.1046359495
C             0.1561076123        0.1355703141        0.1045724665
C             0.4062151221        0.8858966606        0.6046358120
C            -0.0102364214        0.3018609326        0.1046367919
C             0.2398168778        0.0520293003        0.6045732513
C             0.6562195642        0.6359094838        1.1045697104
C            -0.0938958593        0.3855600535        0.6046348882
C             0.7398553151        0.5521460751        0.6045711302



     Writing output data file ./pp.save/
     NEW-OLD atomic charge density approx. for the potential
     extrapolated charge   31.97354, renormalised to   32.00000

     total cpu time spent up to now is       55.2 secs

     Self-consistent Calculation

     iteration #  1     ecut=    40.00 Ry     beta= 0.50
     Davidson diagonalization with overlap
     ethr =  1.00E-06,  avg # of iterations =  2.0

     Threshold (ethr) on eigenvalues was too large:
     Diagonalizing with lowered threshold

     Davidson diagonalization with overlap
     ethr =  2.75E-08,  avg # of iterations =  1.3

     total cpu time spent up to now is       58.7 secs

     total energy              =     -91.15879711 Ry
     Harris-Foulkes estimate   =     -91.19006906 Ry
     estimated scf accuracy    <       0.00000889 Ry

     iteration #  2     ecut=    40.00 Ry     beta= 0.50
     Davidson diagonalization with overlap
     ethr =  2.78E-08,  avg # of iterations =  3.0

     total cpu time spent up to now is       61.4 secs

     total energy              =     -91.15881712 Ry
     Harris-Foulkes estimate   =     -91.15881926 Ry
     estimated scf accuracy    <       0.00000659 Ry

     iteration #  3     ecut=    40.00 Ry     beta= 0.50
     Davidson diagonalization with overlap
     ethr =  2.06E-08,  avg # of iterations =  1.0

     total cpu time spent up to now is       62.9 secs

     total energy              =     -91.15881570 Ry
     Harris-Foulkes estimate   =     -91.15881732 Ry
     estimated scf accuracy    <       0.00000241 Ry

     iteration #  4     ecut=    40.00 Ry     beta= 0.50
     Davidson diagonalization with overlap
     ethr =  7.53E-09,  avg # of iterations =  2.0

     total cpu time spent up to now is       65.1 secs

     total energy              =     -91.15881626 Ry
     Harris-Foulkes estimate   =     -91.15881632 Ry
     estimated scf accuracy    <       0.00000015 Ry

     iteration #  5     ecut=    40.00 Ry     beta= 0.50
     Davidson diagonalization with overlap
     ethr =  4.63E-10,  avg # of iterations =  1.1

     total cpu time spent up to now is       66.7 secs

     total energy              =     -91.15881626 Ry
     Harris-Foulkes estimate   =     -91.15881627 Ry
     estimated scf accuracy    <       0.00000004 Ry

     iteration #  6     ecut=    40.00 Ry     beta= 0.50
     Davidson diagonalization with overlap
     ethr =  1.31E-10,  avg # of iterations =  1.1

     total cpu time spent up to now is       68.3 secs

     total energy              =     -91.15881625 Ry
     Harris-Foulkes estimate   =     -91.15881626 Ry
     estimated scf accuracy    <       0.00000002 Ry

     iteration #  7     ecut=    40.00 Ry     beta= 0.50
     Davidson diagonalization with overlap
     ethr =  4.98E-11,  avg # of iterations =  2.0

     total cpu time spent up to now is       70.7 secs

     total energy              =     -91.15881625 Ry
     Harris-Foulkes estimate   =     -91.15881625 Ry
     estimated scf accuracy    <          1.3E-10 Ry

     iteration #  8     ecut=    40.00 Ry     beta= 0.50
     Davidson diagonalization with overlap
     ethr =  4.18E-13,  avg # of iterations =  2.9

     total cpu time spent up to now is       73.6 secs

     End of self-consistent calculation

          k = 0.0000 0.0000 0.0000 (  2365 PWs)   bands (ev):

   -14.0199 -12.5075 -12.5075  -8.6670  -7.6946  -1.8905  -1.8905  -1.6028
    -0.9079  -0.3393  -0.3393   0.4829   0.4829   2.4647   2.5318   2.9412
     6.8204   8.9608  12.3358  12.3361

          k = 0.0003 0.0002 0.6085 (  2359 PWs)   bands (ev):

   -13.3145 -11.8184 -11.8182  -8.0635  -7.1519  -3.3280  -2.6503  -2.6500
    -1.0423  -1.0422  -0.7855   0.2680   0.4559   0.4587   1.0440   3.8045
     6.6139   9.8640  11.4845  11.4883

          k = 0.0006 0.0004 1.2171 (  2351 PWs)   bands (ev):

   -11.2395  -9.8150  -9.8146  -8.0661  -6.3649  -6.3645  -6.2660  -4.6280
    -3.3559  -1.9460  -0.9333  -0.9332   1.5364   2.5068   2.5115   4.6820
     6.3333   8.1150   8.1217  10.2595

          k =-0.0126 0.5698-0.0010 (  2340 PWs)   bands (ev):

   -13.8099 -13.2748 -11.4227  -9.9832  -6.1946  -4.1087  -1.8886  -1.7108
    -0.7371  -0.2528   0.2063   1.3387   1.3707   1.8228   2.1824   2.3566
     8.2976  10.6858  10.8881  12.2941

          k =-0.0123 0.5700 0.6075 (  2364 PWs)   bands (ev):

   -13.1082 -12.5794 -10.7473  -9.3392  -5.7633  -4.0328  -3.1013  -2.3790
    -1.5043  -1.0560  -0.8764  -0.3950   0.3677   1.0721   2.0845   3.1301
     7.8782   9.7194  11.7257  13.1543

          k =-0.0120 0.5702 1.2161 (  2355 PWs)   bands (ev):

   -11.0449 -10.5404  -8.8548  -8.0817  -7.0316  -7.0102  -5.3876  -4.1960
    -3.6055  -2.0940  -1.2603  -0.6494   1.3051   1.4564   3.5114   4.1392
     6.7688   7.2662   9.3311  10.0342

          k =-0.0132 0.5694-1.2181 (  2353 PWs)   bands (ev):

   -11.0444 -10.5404  -8.8548  -8.0822  -7.0316  -7.0106  -5.3876  -4.1956
    -3.6057  -2.0941  -1.2601  -0.6493   1.3000   1.4565   3.5112   4.1442
     6.7735   7.2662   9.3316  10.0293

          k =-0.0129 0.5696-0.6096 (  2357 PWs)   bands (ev):

   -13.1079 -12.5794 -10.7473  -9.3394  -5.7635  -4.0328  -3.1016  -2.3791
    -1.5041  -1.0589  -0.8763  -0.3946   0.3678   1.0722   2.0845   3.1325
     7.8814   9.7195  11.7382  13.1544

          k =-0.5019 0.0100 0.0006 (  2370 PWs)   bands (ev):

   -13.6369 -13.6368 -10.6912 -10.6911  -5.1500  -5.1499  -1.3128  -1.3114
    -0.5402  -0.5401   1.0952   1.0955   1.4030   1.4036   1.8137   1.8140
     9.1202   9.1212   9.8822   9.8847

          k =-0.5016 0.0102 0.6092 (  2358 PWs)   bands (ev):

   -12.9351 -12.9349 -10.0320 -10.0317  -4.8618  -4.8616  -2.8241  -2.8239
    -0.9228  -0.9225  -0.5008  -0.4983   0.8355   0.8358   2.1822   2.1839
     8.6994   8.7017  10.7654  10.7731

          k =-0.5014 0.0104 1.2177 (  2337 PWs)   bands (ev):

   -10.8737 -10.8734  -8.3450  -8.3446  -7.1946  -7.1943  -4.7773  -4.7769
    -2.8243  -2.8242  -0.8633  -0.8631   1.7615   1.7654   3.7411   3.7444
     7.0132   7.0175   9.4675   9.4716

          k =-0.5145 0.5798-0.0004 (  2359 PWs)   bands (ev):

   -13.9009 -12.9820 -11.9548  -9.2431  -7.1553  -2.9826  -2.3355  -0.8551
    -0.8224  -0.5577  -0.0231   0.0800   0.9246   2.2992   2.4342   3.2008
     7.7543  10.7384  11.4848  12.3525

          k =-0.5142 0.5800 0.6082 (  2350 PWs)   bands (ev):

   -13.1998 -12.2864 -11.2739  -8.6193  -6.6401  -3.2875  -3.2533  -2.0581
    -1.7764  -1.4893  -0.2947   0.0461   0.2374   0.7743   1.0900   4.0055
     7.2383  10.6176  11.6102  12.2927

          k =-0.5140 0.5802 1.2167 (  2344 PWs)   bands (ev):

   -11.1376 -10.2523  -9.3191  -8.0233  -6.7719  -6.5828  -5.8802  -4.3093
    -3.6614  -1.7170  -1.4231  -0.6634   0.9342   2.3327   2.7680   4.2787
     6.7942   7.7850   8.4741  10.4964

          k =-0.5151 0.5794-1.2174 (  2346 PWs)   bands (ev):

   -11.1372 -10.2520  -9.3194  -8.0237  -6.7724  -6.5830  -5.8799  -4.3096
    -3.6611  -1.7168  -1.4232  -0.6634   0.9308   2.3290   2.7711   4.2824
     6.7971   7.7897   8.4697  10.4932

          k =-0.5148 0.5796-0.6089 (  2349 PWs)   bands (ev):

   -13.1996 -12.2862 -11.2740  -8.6194  -6.6402  -3.2878  -3.2535  -2.0579
    -1.7766  -1.4912  -0.2947   0.0462   0.2352   0.7760   1.0901   4.0070
     7.2408  10.6198  11.6171  12.2906

     the Fermi energy is     4.9018 ev

!    total energy              =     -91.15881625 Ry
     Harris-Foulkes estimate   =     -91.15881625 Ry
     estimated scf accuracy    <          6.6E-11 Ry

     The total energy is the sum of the following terms:

     one-electron contribution =     -46.28257757 Ry
     hartree contribution      =      37.11445577 Ry
     xc contribution           =     -27.96334798 Ry
     ewald contribution        =     -54.02779635 Ry
     smearing contrib. (-TS)   =       0.00044987 Ry

     convergence has been achieved in   8 iterations

     Forces acting on atoms (cartesian axes, Ry/au):

     atom    1 type  1   force =    -0.00029139    0.00003644   -0.00005691
     atom    2 type  1   force =     0.00032701   -0.00010931    0.00005767
     atom    3 type  1   force =     0.00027558   -0.00012200   -0.00005042
     atom    4 type  1   force =    -0.00031568    0.00017603   -0.00006025
     atom    5 type  1   force =    -0.00029090    0.00013958    0.00004729
     atom    6 type  1   force =     0.00025061   -0.00016210    0.00005977
     atom    7 type  1   force =     0.00034333   -0.00008735   -0.00004484
     atom    8 type  1   force =    -0.00029856    0.00012870    0.00004770

     Total force =     0.000935     Total SCF correction =     0.000001


     Computing stress (Cartesian axis) and pressure

          total   stress  (Ry/bohr**3)                   (kbar)     P=       -0.24
  -0.00000847  -0.00000296  -0.00000011           -1.25       -0.44       -0.02
  -0.00000296  -0.00000575  -0.00000016           -0.44       -0.85       -0.02
  -0.00000011  -0.00000016   0.00000925           -0.02       -0.02        1.36


     number of scf cycles    =   7
     number of bfgs steps    =   5

     enthalpy old            =     -91.1587750507 Ry
     enthalpy new            =     -91.1587788792 Ry

     CASE: enthalpy_new < enthalpy_old

     new trust radius        =       0.0042872794 bohr
     new conv_thr            =            1.0E-10 Ry

     new unit-cell volume =    549.15464 a.u.^3 (    81.37632 Ang^3 )
     density =      1.95894 g/cm^3

CELL_PARAMETERS (bohr)
  14.154103158   0.302843360  -0.006808535
   0.160367807   8.311679947  -0.003043470
   0.006019836   0.008339088   4.669842922

ATOMIC_POSITIONS (crystal)
C             0.4899097297        0.8022935081        1.1046850405
C             0.1561145565        0.1356076333        0.1045408350
C             0.4061941282        0.8858614609        0.6046894006
C            -0.0102224688        0.3018856443        0.1046711326
C             0.2398276343        0.0520400885        0.6045415528
C             0.6562097422        0.6359076883        1.1045178260
C            -0.0938990528        0.3855659503        0.6046691706
C             0.7398607307        0.5521400263        0.6045150420



     Writing output data file ./pp.save/
     NEW-OLD atomic charge density approx. for the potential
     extrapolated charge   31.96222, renormalised to   32.00000

     total cpu time spent up to now is       73.7 secs

     Self-consistent Calculation

     iteration #  1     ecut=    40.00 Ry     beta= 0.50
     Davidson diagonalization with overlap
     ethr =  1.00E-06,  avg # of iterations =  2.1

     Threshold (ethr) on eigenvalues was too large:
     Diagonalizing with lowered threshold

     Davidson diagonalization with overlap
     ethr =  5.44E-08,  avg # of iterations =  1.2

     total cpu time spent up to now is       77.9 secs

     total energy              =     -91.15878316 Ry
     Harris-Foulkes estimate   =     -91.20321979 Ry
     estimated scf accuracy    <       0.00001753 Ry

     iteration #  2     ecut=    40.00 Ry     beta= 0.50
     Davidson diagonalization with overlap
     ethr =  5.48E-08,  avg # of iterations =  3.0

     total cpu time spent up to now is       82.2 secs

     total energy              =     -91.15882353 Ry
     Harris-Foulkes estimate   =     -91.15882791 Ry
     estimated scf accuracy    <       0.00001356 Ry

     iteration #  3     ecut=    40.00 Ry     beta= 0.50
     Davidson diagonalization with overlap
     ethr =  4.24E-08,  avg # of iterations =  1.0

     total cpu time spent up to now is       84.1 secs

     total energy              =     -91.15882056 Ry
     Harris-Foulkes estimate   =     -91.15882394 Ry
     estimated scf accuracy    <       0.00000502 Ry

     iteration #  4     ecut=    40.00 Ry     beta= 0.50
     Davidson diagonalization with overlap
     ethr =  1.57E-08,  avg # of iterations =  2.0

     total cpu time spent up to now is       86.7 secs

     total energy              =     -91.15882173 Ry
     Harris-Foulkes estimate   =     -91.15882186 Ry
     estimated scf accuracy    <       0.00000033 Ry

     iteration #  5     ecut=    40.00 Ry     beta= 0.50
     Davidson diagonalization with overlap
     ethr =  1.03E-09,  avg # of iterations =  1.5

     total cpu time spent up to now is       88.9 secs

     total energy              =     -91.15882172 Ry
     Harris-Foulkes estimate   =     -91.15882175 Ry
     estimated scf accuracy    <       0.00000008 Ry

     iteration #  6     ecut=    40.00 Ry     beta= 0.50
     Davidson diagonalization with overlap
     ethr =  2.42E-10,  avg # of iterations =  1.1

     total cpu time spent up to now is       90.9 secs

     total energy              =     -91.15882171 Ry
     Harris-Foulkes estimate   =     -91.15882173 Ry
     estimated scf accuracy    <       0.00000003 Ry

     iteration #  7     ecut=    40.00 Ry     beta= 0.50
     Davidson diagonalization with overlap
     ethr =  9.29E-11,  avg # of iterations =  2.0

     total cpu time spent up to now is       93.7 secs

     total energy              =     -91.15882171 Ry
     Harris-Foulkes estimate   =     -91.15882171 Ry
     estimated scf accuracy    <          3.1E-10 Ry

     iteration #  8     ecut=    40.00 Ry     beta= 0.50
     Davidson diagonalization with overlap
     ethr =  9.66E-13,  avg # of iterations =  2.7

     total cpu time spent up to now is       97.0 secs

     End of self-consistent calculation

          k = 0.0000 0.0000 0.0000 (  2365 PWs)   bands (ev):

   -14.0089 -12.4962 -12.4962  -8.6562  -7.6833  -1.8806  -1.8805  -1.5880
    -0.8943  -0.3289  -0.3288   0.4964   0.4965   2.4745   2.5451   2.9497
     6.8285   8.9773  12.3575  12.3587

          k = 0.0003 0.0002 0.6086 (  2359 PWs)   bands (ev):

   -13.3033 -11.8070 -11.8067  -8.0526  -7.1405  -3.3151  -2.6383  -2.6379
    -1.0313  -1.0312  -0.7707   0.2807   0.4665   0.4692   1.0546   3.8132
     6.6236   9.8803  11.4962  11.4998

          k = 0.0006 0.0004 1.2172 (  2351 PWs)   bands (ev):

   -11.2279  -9.8032  -9.8028  -8.0539  -6.3527  -6.3523  -6.2548  -4.6167
    -3.3441  -1.9347  -0.9229  -0.9228   1.5511   2.5178   2.5225   4.6954
     6.3425   8.1265   8.1329  10.2695

          k =-0.0122 0.5701-0.0010 (  2340 PWs)   bands (ev):

   -13.7985 -13.2630 -11.4120  -9.9724  -6.1839  -4.0986  -1.8770  -1.7024
    -0.7235  -0.2391   0.2163   1.3528   1.3840   1.8327   2.1957   2.3683
     8.3072  10.6981  10.9095  12.3090

          k =-0.0119 0.5703 0.6076 (  2364 PWs)   bands (ev):

   -13.0967 -12.5675 -10.7365  -9.3283  -5.7524  -4.0217  -3.0884  -2.3667
    -1.4921  -1.0444  -0.8677  -0.3826   0.3784   1.0827   2.0985   3.1419
     7.8887   9.7310  11.7468  13.1672

          k =-0.0116 0.5705 1.2162 (  2355 PWs)   bands (ev):

   -11.0330 -10.5282  -8.8434  -8.0696  -7.0192  -6.9988  -5.3759  -4.1843
    -3.5946  -2.0836  -1.2494  -0.6388   1.3170   1.4658   3.5239   4.1515
     6.7805   7.2781   9.3449  10.0463

          k =-0.0128 0.5697-1.2182 (  2353 PWs)   bands (ev):

   -11.0325 -10.5282  -8.8434  -8.0701  -7.0192  -6.9991  -5.3758  -4.1839
    -3.5948  -2.0836  -1.2492  -0.6388   1.3120   1.4658   3.5238   4.1562
     6.7851   7.2780   9.3454  10.0416

          k =-0.0125 0.5699-0.6096 (  2357 PWs)   bands (ev):

   -13.0964 -12.5675 -10.7365  -9.3285  -5.7525  -4.0217  -3.0887  -2.3667
    -1.4918  -1.0472  -0.8676  -0.3823   0.3784   1.0829   2.0987   3.1442
     7.8918   9.7310  11.7590  13.1673

          k =-0.5022 0.0097 0.0006 (  2370 PWs)   bands (ev):

   -13.6258 -13.6258 -10.6799 -10.6798  -5.1395  -5.1394  -1.2994  -1.2981
    -0.5266  -0.5265   1.1051   1.1052   1.4115   1.4121   1.8271   1.8273
     9.1301   9.1309   9.9014   9.9036

          k =-0.5019 0.0099 0.6092 (  2358 PWs)   bands (ev):

   -12.9239 -12.9237 -10.0205 -10.0203  -4.8508  -4.8507  -2.8115  -2.8113
    -0.9103  -0.9101  -0.4873  -0.4850   0.8462   0.8463   2.1910   2.1927
     8.7105   8.7127  10.7844  10.7918

          k =-0.5016 0.0101 1.2178 (  2337 PWs)   bands (ev):

[...]
     6.9499   8.6756  12.5599  12.5890

          k = 0.0024 0.0028 0.6087 (  2359 PWs)   bands (ev):

   -13.5105 -12.0071 -11.9902  -8.2884  -7.3824  -3.5222  -2.8561  -2.8383
    -1.2529  -1.2389  -1.0420   0.0180   0.0278   0.0720   0.8321   3.8727
     6.6241   9.5839  11.2631  11.2762

          k = 0.0048 0.0057 1.2174 (  2351 PWs)   bands (ev):

   -11.4356 -10.0062  -9.9884  -8.2651  -6.5587  -6.5431  -6.4832  -4.8502
    -3.5636  -2.1651  -1.1485  -1.1340   1.2908   2.1049   2.1186   4.4926
     6.3766   7.7275   7.7507  10.2502

          k = 0.0079 0.4972 0.0011 (  2340 PWs)   bands (ev):

   -14.0233 -13.4909 -11.6049 -10.2114  -6.3806  -4.2902  -1.9909  -1.8200
    -0.9319  -0.4472  -0.0166   0.9179   1.1853   1.6117   1.9949   2.4200
     7.9439  10.0534  10.1640  12.6178

          k = 0.0103 0.5000 0.6099 (  2364 PWs)   bands (ev):

   -13.3201 -12.7945 -10.9310  -9.5649  -5.9537  -4.2196  -3.2986  -2.5747
    -1.6984  -1.1695  -0.9858  -0.5945   0.1617   0.8688   1.6813   3.1903
     7.5559   9.3770  10.9537  12.9087

          k = 0.0126 0.5029 1.2186 (  2355 PWs)   bands (ev):

   -11.2538 -10.7522  -9.0442  -8.2942  -7.2338  -7.2228  -5.5738  -4.4051
    -3.7975  -2.2847  -1.4578  -0.8499   1.1754   1.3308   3.2166   4.0889
     6.6552   7.0062   8.9896   9.9738

          k = 0.0031 0.4915-1.2163 (  2353 PWs)   bands (ev):

   -11.2554 -10.7522  -9.0396  -8.2968  -7.2382  -7.2171  -5.5743  -4.4061
    -3.7985  -2.2845  -1.4574  -0.8501   1.1996   1.3198   3.2145   4.0653
     6.6511   7.0035   9.0102   9.9793

          k = 0.0055 0.4944-0.6076 (  2357 PWs)   bands (ev):

   -13.3211 -12.7943 -10.9293  -9.5658  -5.9505  -4.2253  -3.2994  -2.5704
    -1.6957  -1.1557  -0.9921  -0.5974   0.1577   0.8721   1.6738   3.1846
     7.5516   9.3822  10.8984  12.9236

          k =-0.5633-0.0136-0.0009 (  2370 PWs)   bands (ev):

   -13.8287 -13.8189 -10.8932 -10.8888  -5.3881  -5.3819  -1.6970  -1.6692
    -0.7340  -0.7270   0.8763   0.8885   1.1818   1.1898   1.6254   1.6279
     9.2709   9.2808  10.0189  10.0915

          k =-0.5610-0.0108 0.6078 (  2358 PWs)   bands (ev):

   -13.1273 -13.1175 -10.2337 -10.2292  -5.0921  -5.0846  -3.0231  -3.0150
    -1.1202  -1.1156  -0.8781  -0.8486   0.6304   0.6342   1.9520   1.9593
     8.6997   8.7158  10.8860  10.9733

          k =-0.5586-0.0080 1.2165 (  2337 PWs)   bands (ev):

   -11.0670 -11.0573  -8.5455  -8.5371  -7.3911  -7.3840  -4.9757  -4.9719
    -3.0485  -3.0432  -1.0778  -1.0735   1.4105   1.4402   3.4790   3.4829
     6.8045   6.8259   9.2567   9.2664

          k =-0.5554 0.4836 0.0002 (  2359 PWs)   bands (ev):

   -14.1074 -13.1904 -12.1894  -9.4082  -7.3574  -3.1962  -2.5324  -1.0495
    -1.0146  -0.6766  -0.1121   0.0885   0.7309   2.0813   2.2532   2.6973
     7.3851  10.0164  11.3572  12.1072

          k =-0.5531 0.4864 0.6090 (  2350 PWs)   bands (ev):

   -13.4052 -12.4942 -11.5066  -8.7873  -6.8412  -3.4971  -3.4510  -2.2604
    -1.9748  -1.6908  -0.4896  -0.1363   0.1126   0.8655   0.8970   3.5044
     6.9703  10.4751  10.9328  12.0956

          k =-0.5507 0.4892 1.2177 (  2344 PWs)   bands (ev):

   -11.3408 -10.4589  -9.5451  -8.2243  -6.9762  -6.7564  -6.0946  -4.5110
    -3.8380  -1.9212  -1.6283  -0.8633   0.7253   2.2026   2.8011   4.0205
     6.4190   7.7112   8.4792  10.1131

          k =-0.5602 0.4779-1.2172 (  2346 PWs)   bands (ev):

   -11.3424 -10.4579  -9.5458  -8.2209  -6.9733  -6.7584  -6.0979  -4.5107
    -3.8385  -1.9209  -1.6294  -0.8625   0.7381   2.2121   2.7785   4.0090
     6.4112   7.7082   8.4997  10.1205

          k =-0.5578 0.4807-0.6085 (  2349 PWs)   bands (ev):

   -13.4061 -12.4939 -11.5063  -8.7853  -6.8437  -3.4917  -3.4490  -2.2661
    -1.9804  -1.6834  -0.4849  -0.1349   0.1166   0.8560   0.8909   3.5008
     6.9667  10.4787  10.9261  12.1074

     the Fermi energy is     4.7085 ev

!    total energy              =     -91.15966639 Ry
     Harris-Foulkes estimate   =     -91.15966639 Ry
     estimated scf accuracy    <          2.2E-11 Ry

     The total energy is the sum of the following terms:

     one-electron contribution =     -50.27716307 Ry
     hartree contribution      =      38.87747848 Ry
     xc contribution           =     -27.96640216 Ry
     ewald contribution        =     -51.79406717 Ry
     smearing contrib. (-TS)   =       0.00048752 Ry

     convergence has been achieved in  10 iterations

     Forces acting on atoms (cartesian axes, Ry/au):

     atom    1 type  1   force =    -0.00575498   -0.00063089    0.00062007
     atom    2 type  1   force =     0.00593350    0.00057264    0.00079572
     atom    3 type  1   force =    -0.00256806   -0.00072494   -0.00046116
     atom    4 type  1   force =    -0.00402348    0.00045912   -0.00045016
     atom    5 type  1   force =     0.00149208    0.00066233    0.00231986
     atom    6 type  1   force =     0.00420415   -0.00102192   -0.00094113
     atom    7 type  1   force =     0.00077639   -0.00047071   -0.00222559
     atom    8 type  1   force =    -0.00005958    0.00115438    0.00034240

     Total force =     0.011353     Total SCF correction =     0.000008


     Computing stress (Cartesian axis) and pressure

          total   stress  (Ry/bohr**3)                   (kbar)     P=        3.54
   0.00002207  -0.00002345   0.00000535            3.25       -3.45        0.79
  -0.00002345   0.00001646  -0.00000435           -3.45        2.42       -0.64
   0.00000535  -0.00000435   0.00003365            0.79       -0.64        4.95


     number of scf cycles    =  33
     number of bfgs steps    =  30

     enthalpy old            =     -91.1595591662 Ry
     enthalpy new            =     -91.1596282419 Ry

     CASE: enthalpy_new < enthalpy_old

     new trust radius        =       0.0352065676 bohr
     new conv_thr            =            1.0E-10 Ry

     new unit-cell volume =    561.04515 a.u.^3 (    83.13831 Ang^3 )
     density =      1.91743 g/cm^3

CELL_PARAMETERS (bohr)
  12.530134948  -0.229370871  -0.049948203
  -0.254321077   9.590432958  -0.045722522
  -0.007842875  -0.011823526   4.671141787

ATOMIC_POSITIONS (crystal)
C             0.4929396312        0.8069026170        1.1047496238
C             0.1537557019        0.1320995439        0.1036148621
C             0.4083344309        0.8893497113        0.6046853306
C            -0.0124770994        0.2984080755        0.1052585466
C             0.2388565321        0.0502669599        0.6034989740
C             0.6578789056        0.6383520594        1.1047912233
C            -0.0955192466        0.3830375052        0.6054644212
C             0.7402261444        0.5528855277        0.6047670184



     Writing output data file ./pp.save/
     NEW-OLD atomic charge density approx. for the potential
     extrapolated charge   31.99223, renormalised to   32.00000

     total cpu time spent up to now is     2007.4 secs

     Self-consistent Calculation

     iteration #  1     ecut=    40.00 Ry     beta= 0.50
     Davidson diagonalization with overlap
     ethr =  1.00E-06,  avg # of iterations =  4.1

     total cpu time spent up to now is     2033.2 secs

     total energy              =     -91.15975841 Ry
     Harris-Foulkes estimate   =     -91.16974792 Ry
     estimated scf accuracy    <       0.00003575 Ry

     iteration #  2     ecut=    40.00 Ry     beta= 0.50
     Davidson diagonalization with overlap
     ethr =  1.12E-07,  avg # of iterations =  2.0

     total cpu time spent up to now is     2047.1 secs

     total energy              =     -91.15976526 Ry
     Harris-Foulkes estimate   =     -91.15976437 Ry
     estimated scf accuracy    <       0.00000745 Ry

     iteration #  3     ecut=    40.00 Ry     beta= 0.50
     Davidson diagonalization with overlap
     ethr =  2.33E-08,  avg # of iterations =  2.0

     total cpu time spent up to now is     2060.1 secs

     total energy              =     -91.15976621 Ry
     Harris-Foulkes estimate   =     -91.15976616 Ry
     estimated scf accuracy    <       0.00000172 Ry

     iteration #  4     ecut=    40.00 Ry     beta= 0.50
     Davidson diagonalization with overlap
     ethr =  5.38E-09,  avg # of iterations =  2.0

     total cpu time spent up to now is     2073.5 secs

     total energy              =     -91.15976652 Ry
     Harris-Foulkes estimate   =     -91.15976665 Ry
     estimated scf accuracy    <       0.00000050 Ry

     iteration #  5     ecut=    40.00 Ry     beta= 0.50
     Davidson diagonalization with overlap
     ethr =  1.57E-09,  avg # of iterations =  2.0

     total cpu time spent up to now is     2086.6 secs

     total energy              =     -91.15976661 Ry
     Harris-Foulkes estimate   =     -91.15976661 Ry
     estimated scf accuracy    <       0.00000003 Ry

     iteration #  6     ecut=    40.00 Ry     beta= 0.50
     Davidson diagonalization with overlap
     ethr =  9.24E-11,  avg # of iterations =  2.5

     total cpu time spent up to now is     2102.8 secs

     total energy              =     -91.15976661 Ry
     Harris-Foulkes estimate   =     -91.15976661 Ry
     estimated scf accuracy    <          9.2E-10 Ry

     iteration #  7     ecut=    40.00 Ry     beta= 0.50
     Davidson diagonalization with overlap
     ethr =  2.88E-12,  avg # of iterations =  2.6

     total cpu time spent up to now is     2119.1 secs

     total energy              =     -91.15976661 Ry
     Harris-Foulkes estimate   =     -91.15976661 Ry
     estimated scf accuracy    <          1.4E-10 Ry

     iteration #  8     ecut=    40.00 Ry     beta= 0.50
     Davidson diagonalization with overlap
     ethr =  4.42E-13,  avg # of iterations =  2.0

     total cpu time spent up to now is     2133.6 secs

     End of self-consistent calculation

          k = 0.0000 0.0000 0.0000 (  2365 PWs)   bands (ev):

   -14.2056 -12.6774 -12.6735  -8.8904  -7.9165  -2.0990  -2.0935  -1.8489
    -1.1020  -0.7879  -0.7873   0.2902   0.2934   2.2658   2.3365   3.0404
     6.9867   8.6852  12.5489  12.5854

          k = 0.0025 0.0030 0.6084 (  2359 PWs)   bands (ev):

   -13.5008 -11.9899 -11.9858  -8.2847  -7.3719  -3.5207  -2.8451  -2.8406
    -1.2424  -1.2372  -1.0307   0.0139   0.0221   0.0674   0.8424   3.8939
     6.6490   9.5924  11.2531  11.2641

          k = 0.0050 0.0059 1.2168 (  2351 PWs)   bands (ev):

   -11.4279  -9.9911  -9.9866  -8.2603  -6.5470  -6.5433  -6.4815  -4.8396
    -3.5642  -2.1551  -1.1340  -1.1309   1.2999   2.1006   2.1140   4.5020
     6.3936   7.7155   7.7380  10.2592

          k = 0.0091 0.4941 0.0013 (  2340 PWs)   bands (ev):

   -14.0132 -13.4804 -11.5937 -10.2030  -6.3704  -4.2787  -1.9762  -1.8088
    -0.9340  -0.4496  -0.0061   0.9072   1.1804   1.6236   1.9882   2.4302
     7.9554  10.0442  10.1453  12.6773

          k = 0.0115 0.4971 0.6097 (  2364 PWs)   bands (ev):

   -13.3105 -12.7849 -10.9204  -9.5576  -5.9438  -4.2127  -3.2976  -2.5703
    -1.6960  -1.1561  -0.9756  -0.5952   0.1677   0.8762   1.6726   3.2003
     7.5636   9.3657  10.9458  12.8992

          k = 0.0140 0.5001 1.2181 (  2355 PWs)   bands (ev):

   -11.2461 -10.7449  -9.0355  -8.2905  -7.2288  -7.2169  -5.5689  -4.4022
    -3.7879  -2.2754  -1.4501  -0.8411   1.1862   1.3378   3.2153   4.0973
     6.6600   6.9968   8.9756   9.9749

          k = 0.0041 0.4882-1.2156 (  2353 PWs)   bands (ev):

   -11.2482 -10.7441  -9.0329  -8.2906  -7.2320  -7.2130  -5.5694  -4.4036
    -3.7893  -2.2746  -1.4487  -0.8422   1.2110   1.3272   3.2095   4.0755
     6.6539   6.9969   8.9975   9.9794

          k = 0.0066 0.4912-0.6072 (  2357 PWs)   bands (ev):

   -13.3117 -12.7843 -10.9192  -9.5577  -5.9424  -4.2160  -3.2972  -2.5682
    -1.6943  -1.1417  -0.9820  -0.5978   0.1647   0.8792   1.6630   3.1963
     7.5580   9.3729  10.8869  12.9157

          k =-0.5673-0.0150-0.0010 (  2370 PWs)   bands (ev):

   -13.8186 -13.8065 -10.8848 -10.8788  -5.3770  -5.3747  -1.6942  -1.6680
    -0.7424  -0.7227   0.8856   0.9100   1.1867   1.1966   1.6103   1.6311
     9.2790   9.3050  10.0601  10.1339

          k =-0.5648-0.0121 0.6074 (  2358 PWs)   bands (ev):

   -13.1180 -13.1057 -10.2261 -10.2196  -5.0819  -5.0796  -3.0256  -3.0081
    -1.1247  -1.1097  -0.8764  -0.8473   0.6320   0.6474   1.9617   1.9670
     8.7039   8.7267  10.9249  11.0152

          k =-0.5623-0.0091 1.2159 (  2337 PWs)   bands (ev):

   -11.0600 -11.0476  -8.5372  -8.5334  -7.3858  -7.3780  -4.9753  -4.9651
    -3.0385  -3.0362  -1.0706  -1.0649   1.4101   1.4420   3.4804   3.4919
     6.8046   6.8249   9.2584   9.2631

          k =-0.5583 0.4791 0.0003 (  2359 PWs)   bands (ev):

   -14.0962 -13.1804 -12.1809  -9.3981  -7.3448  -3.1877  -2.5268  -1.0511
    -1.0042  -0.6639  -0.1150   0.1120   0.7265   2.0949   2.2461   2.6806
     7.3702  10.0192  11.3753  12.1379

          k =-0.5558 0.4821 0.6087 (  2350 PWs)   bands (ev):

   -13.3947 -12.4847 -11.4991  -8.7776  -6.8305  -3.4917  -3.4486  -2.2591
    -1.9722  -1.6863  -0.4826  -0.1379   0.1251   0.8798   0.9138   3.4904
     6.9604  10.4866  10.9317  12.0961

          k =-0.5533 0.4850 1.2171 (  2344 PWs)   bands (ev):

   -11.3325 -10.4512  -9.5401  -8.2182  -6.9710  -6.7508  -6.0911  -4.4997
    -3.8354  -1.9108  -1.6202  -0.8558   0.7275   2.2141   2.8173   4.0201
     6.4031   7.7187   8.4872  10.0968

          k =-0.5632 0.4732-1.2166 (  2346 PWs)   bands (ev):

   -11.3340 -10.4511  -9.5391  -8.2157  -6.9690  -6.7518  -6.0944  -4.4993
    -3.8355  -1.9110  -1.6221  -0.8541   0.7414   2.2212   2.7963   4.0062
     6.3973   7.7140   8.5103  10.1039

          k =-0.5607 0.4761-0.6081 (  2349 PWs)   bands (ev):

   -13.3955 -12.4847 -11.4981  -8.7765  -6.8317  -3.4887  -3.4470  -2.2634
    -1.9757  -1.6783  -0.4792  -0.1367   0.1279   0.8729   0.9056   3.4859
     6.9584  10.4895  10.9255  12.1094

     the Fermi energy is     4.7196 ev

!    total energy              =     -91.15976661 Ry
     Harris-Foulkes estimate   =     -91.15976661 Ry
     estimated scf accuracy    <          3.3E-11 Ry

     The total energy is the sum of the following terms:

     one-electron contribution =     -50.05143325 Ry
     hartree contribution      =      38.76793485 Ry
     xc contribution           =     -27.96042437 Ry
     ewald contribution        =     -51.91631690 Ry
     smearing contrib. (-TS)   =       0.00047306 Ry

     convergence has been achieved in   8 iterations

     Forces acting on atoms (cartesian axes, Ry/au):

     atom    1 type  1   force =    -0.00365952   -0.00105798    0.00016131
     atom    2 type  1   force =     0.00431778   -0.00017747    0.00076137
     atom    3 type  1   force =     0.00008964   -0.00213803   -0.00081656
     atom    4 type  1   force =    -0.00073941   -0.00046371   -0.00066799
     atom    5 type  1   force =    -0.00115084    0.00258822    0.00168749
     atom    6 type  1   force =    -0.00049666    0.00146821   -0.00021690
     atom    7 type  1   force =    -0.00009181    0.00082063   -0.00148604
     atom    8 type  1   force =     0.00173082   -0.00103988    0.00057731

     Total force =     0.007802     Total SCF correction =     0.000011


     Computing stress (Cartesian axis) and pressure

          total   stress  (Ry/bohr**3)                   (kbar)     P=        1.10
   0.00001046  -0.00001082   0.00000231            1.54       -1.59        0.34
  -0.00001082   0.00000698  -0.00000200           -1.59        1.03       -0.29
   0.00000231  -0.00000200   0.00000509            0.34       -0.29        0.75


     number of scf cycles    =  34
     number of bfgs steps    =  31

     enthalpy old            =     -91.1596282419 Ry
     enthalpy new            =     -91.1597284753 Ry

     CASE: enthalpy_new < enthalpy_old

     new trust radius        =       0.0430230798 bohr
     new conv_thr            =       0.0000000001 Ry

     new unit-cell volume =    556.09529 a.u.^3 (    82.40482 Ang^3 )
     density =      1.93450 g/cm^3

CELL_PARAMETERS (bohr)
  12.509793088  -0.289093494  -0.049491759
  -0.287039763   9.518412513  -0.046358811
  -0.007833601  -0.012438570   4.673541096

ATOMIC_POSITIONS (crystal)
C             0.4921949798        0.8057204253        1.1050879691
C             0.1545454620        0.1329937482        0.1043832632
C             0.4078883813        0.8882394853        0.6050367485
C            -0.0126314838        0.2985131128        0.1046626106
C             0.2390663853        0.0511269157        0.6044806298
C             0.6579987957        0.6385493154        1.1042896036
C            -0.0955859931        0.3832711785        0.6046314845
C             0.7405184729        0.5528878187        0.6042576907



     Writing output data file ./pp.save/
     NEW-OLD atomic charge density approx. for the potential
     extrapolated charge   31.71517, renormalised to   32.00000

     total cpu time spent up to now is     2134.2 secs

     Self-consistent Calculation

     iteration #  1     ecut=    40.00 Ry     beta= 0.50
     Davidson diagonalization with overlap
     ethr =  1.00E-06,  avg # of iterations =  5.2

     total cpu time spent up to now is     2164.7 secs

     total energy              =     -91.15759186 Ry
     Harris-Foulkes estimate   =     -91.51059768 Ry
     estimated scf accuracy    <       0.00107683 Ry

     iteration #  2     ecut=    40.00 Ry     beta= 0.50
     Davidson diagonalization with overlap
     ethr =  3.37E-06,  avg # of iterations =  3.5

     total cpu time spent up to now is     2185.6 secs

     total energy              =     -91.15992603 Ry
     Harris-Foulkes estimate   =     -91.16018579 Ry
     estimated scf accuracy    <       0.00080260 Ry

     iteration #  3     ecut=    40.00 Ry     beta= 0.50
     Davidson diagonalization with overlap
     ethr =  2.51E-06,  avg # of iterations =  1.0

     total cpu time spent up to now is     2196.1 secs

     total energy              =     -91.15977258 Ry
     Harris-Foulkes estimate   =     -91.15995101 Ry
     estimated scf accuracy    <       0.00029022 Ry

     iteration #  4     ecut=    40.00 Ry     beta= 0.50
     Davidson diagonalization with overlap
     ethr =  9.07E-07,  avg # of iterations =  2.2

     total cpu time spent up to now is     2211.8 secs

     total energy              =     -91.15982450 Ry
     Harris-Foulkes estimate   =     -91.15982463 Ry
     estimated scf accuracy    <       0.00000385 Ry

     iteration #  5     ecut=    40.00 Ry     beta= 0.50
     Davidson diagonalization with overlap
     ethr =  1.20E-08,  avg # of iterations =  2.3

     total cpu time spent up to now is     2227.7 secs

     total energy              =     -91.15982400 Ry
     Harris-Foulkes estimate   =     -91.15982589 Ry
     estimated scf accuracy    <       0.00000405 Ry

     iteration #  6     ecut=    40.00 Ry     beta= 0.50
     Davidson diagonalization with overlap
     ethr =  1.20E-08,  avg # of iterations =  2.0

     total cpu time spent up to now is     2241.7 secs

     total energy              =     -91.15982401 Ry
     Harris-Foulkes estimate   =     -91.15982430 Ry
     estimated scf accuracy    <       0.00000048 Ry

     iteration #  7     ecut=    40.00 Ry     beta= 0.50
     Davidson diagonalization with overlap
     ethr =  1.51E-09,  avg # of iterations =  2.0

     total cpu time spent up to now is     2256.8 secs

     total energy              =     -91.15982411 Ry
     Harris-Foulkes estimate   =     -91.15982412 Ry
     estimated scf accuracy    <          8.5E-09 Ry

     iteration #  8     ecut=    40.00 Ry     beta= 0.50
     Davidson diagonalization with overlap
     ethr =  2.67E-11,  avg # of iterations =  2.1

     total cpu time spent up to now is     2272.6 secs

     total energy              =     -91.15982412 Ry
     Harris-Foulkes estimate   =     -91.15982412 Ry
     estimated scf accuracy    <          2.4E-09 Ry

     iteration #  9     ecut=    40.00 Ry     beta= 0.50
     Davidson diagonalization with overlap
