
     Program PWSCF v.6.5 starts on  7Jul2022 at 11:50:57 

     This program is part of the open-source Quantum ESPRESSO suite
     for quantum simulation of materials; please cite
         "P. Giannozzi et al., J. Phys.:Condens. Matter 21 395502 (2009);
         "P. Giannozzi et al., J. Phys.:Condens. Matter 29 465901 (2017);
          URL http://www.quantum-espresso.org", 
     in publications or presentations arising from this work. More details at
     http://www.quantum-espresso.org/quote

     Parallel version (MPI), running on    96 processors

     MPI processes distributed on     2 nodes
     R & G space division:  proc/nbgrp/npool/nimage =      96
     Waiting for input...
     Reading input from standard input
     Message from routine read_cards :
     DEPRECATED: no units specified in CELL_PARAMETERS card

     Current dimensions of program PWSCF are:
     Max number of different atomic species (ntypx) = 10
     Max number of k-points (npk) =  40000
     Max angular momentum in pseudopotentials (lmaxx) =  3

     Subspace diagonalization in iterative solution of the eigenvalue problem:
     one sub-group per band group will be used
     scalapack distributed-memory algorithm (size of sub-group:  9*  9 procs)

 
     Parallelization info
     --------------------
     sticks:   dense  smooth     PW     G-vecs:    dense   smooth      PW
     Min          17      17      5                  217      217      35
     Max          18      18      6                  220      220      38
     Sum        1681    1681    507                20987    20987    3477
 


     bravais-lattice index     =            0
     lattice parameter (alat)  =      16.1727  a.u.
     unit-cell volume          =     613.7607 (a.u.)^3
     number of atoms/cell      =            8
     number of atomic types    =            1
     number of electrons       =        32.00
     number of Kohn-Sham states=           20
     kinetic-energy cutoff     =      40.0000  Ry
     charge density cutoff     =     160.0000  Ry
     convergence threshold     =      1.0E-08
     mixing beta               =       0.5000
     number of iterations used =            8  plain     mixing
     Exchange-correlation=  SLA  PW   PBE  PBE
                           (   1   4   3   4   0   0   0)
     nstep                     =          250


     celldm(1)=  16.172715  celldm(2)=   0.000000  celldm(3)=   0.000000
     celldm(4)=   0.000000  celldm(5)=   0.000000  celldm(6)=   0.000000

     crystal axes: (cart. coord. in units of alat)
               a(1) = (   0.999647  -0.026582  -0.000006 )  
               a(2) = (  -0.014735   0.504634   0.000315 )  
               a(3) = (   0.000006   0.000056   0.287849 )  

     reciprocal axes: (cart. coord. in units 2 pi/alat)
               b(1) = (  1.001131  0.029232 -0.000027 )  
               b(2) = (  0.052735  1.983175 -0.000385 )  
               b(3) = ( -0.000036 -0.002172  3.474044 )  


     PseudoPot. # 1 for C  read from file:
     ./C.pbe-van_bm.upf
     MD5 check sum: 1a69bf6b8db32088f5b2163dbdb77a27
     Pseudo is Ultrasoft, Zval =  4.0
     Generated by new atomic code, or converted to UPF format
     Using radial grid of  721 points,  4 beta functions with: 
                l(1) =   0
                l(2) =   0
                l(3) =   1
                l(4) =   1
     Q(r) pseudized with  8 coefficients,  rinner =    0.800   0.800   0.800


     atomic species   valence    mass     pseudopotential
        C              4.00    12.00000     C ( 1.00)

     No symmetry found



   Cartesian axes

     site n.     atom                  positions (alat units)
         1           C   tau(   1) = (   0.3445985   0.2590798   0.0204845  )
         2           C   tau(   2) = (   0.4271200   0.2568932   0.1644126  )
         3           C   tau(   3) = (   0.1771927   0.2635646   0.0205006  )
         4           C   tau(   4) = (   0.5944847   0.2523792   0.1644008  )
         5           C   tau(   5) = (   0.6770069   0.2501423   0.0204798  )
         6           C   tau(   6) = (   0.8444195   0.2457611   0.3083336  )
         7           C   tau(   7) = (   0.9269485   0.2435966   0.1644149  )
         8           C   tau(   8) = (   0.0946684   0.2657718   0.1644233  )

     number of k points=    16  Marzari-Vanderbilt smearing, width (Ry)=  0.0200
                       cart. coord. in units 2pi/alat
        k(    1) = (   0.0000000   0.0000000   0.0000000), wk =   0.0666667
        k(    2) = (  -0.0000073  -0.0004344   0.6948088), wk =   0.1333333
        k(    3) = (  -0.0000145  -0.0008688   1.3896176), wk =   0.1333333
        k(    4) = (   0.0175783   0.6610582  -0.0001282), wk =   0.1333333
        k(    5) = (   0.0175711   0.6606238   0.6946806), wk =   0.1333333
        k(    6) = (   0.0175638   0.6601894   1.3894894), wk =   0.1333333
        k(    7) = (   0.0175928   0.6619270  -1.3897458), wk =   0.1333333
        k(    8) = (   0.0175856   0.6614926  -0.6949370), wk =   0.1333333
        k(    9) = (  -0.5005654  -0.0146159   0.0000136), wk =   0.0666667
        k(   10) = (  -0.5005726  -0.0150503   0.6948224), wk =   0.1333333
        k(   11) = (  -0.5005799  -0.0154847   1.3896312), wk =   0.1333333
        k(   12) = (  -0.4829871   0.6464423  -0.0001146), wk =   0.1333333
        k(   13) = (  -0.4829943   0.6460079   0.6946942), wk =   0.1333333
        k(   14) = (  -0.4830016   0.6455735   1.3895030), wk =   0.1333333
        k(   15) = (  -0.4829726   0.6473111  -1.3897322), wk =   0.1333333
        k(   16) = (  -0.4829798   0.6468767  -0.6949234), wk =   0.1333333

     Dense  grid:    20987 G-vectors     FFT dimensions: (  72,  36,  20)

     Estimated max dynamical RAM per process >       1.78 MB

     Estimated total dynamical RAM >     170.88 MB

     Initial potential from superposition of free atoms

     starting charge   31.99968, renormalised to   32.00000
     Starting wfcs are   32 randomized atomic wfcs

     total cpu time spent up to now is        1.6 secs

     Self-consistent Calculation

     iteration #  1     ecut=    40.00 Ry     beta= 0.50
     Davidson diagonalization with overlap
     ethr =  1.00E-02,  avg # of iterations =  2.3

     total cpu time spent up to now is        2.5 secs

     total energy              =     -91.11541193 Ry
     Harris-Foulkes estimate   =     -91.50322026 Ry
     estimated scf accuracy    <       0.78731339 Ry

     iteration #  2     ecut=    40.00 Ry     beta= 0.50
     Davidson diagonalization with overlap
     ethr =  2.46E-03,  avg # of iterations =  2.1

     total cpu time spent up to now is        3.3 secs

     total energy              =     -91.14550775 Ry
     Harris-Foulkes estimate   =     -91.17849515 Ry
     estimated scf accuracy    <       0.07220877 Ry

     iteration #  3     ecut=    40.00 Ry     beta= 0.50
     Davidson diagonalization with overlap
     ethr =  2.26E-04,  avg # of iterations =  3.7

     total cpu time spent up to now is        4.4 secs

     total energy              =     -91.15713938 Ry
     Harris-Foulkes estimate   =     -91.15719257 Ry
     estimated scf accuracy    <       0.00213682 Ry

     iteration #  4     ecut=    40.00 Ry     beta= 0.50
     Davidson diagonalization with overlap
     ethr =  6.68E-06,  avg # of iterations =  3.8

     total cpu time spent up to now is        5.6 secs

     total energy              =     -91.15734446 Ry
     Harris-Foulkes estimate   =     -91.15744158 Ry
     estimated scf accuracy    <       0.00021202 Ry

     iteration #  5     ecut=    40.00 Ry     beta= 0.50
     Davidson diagonalization with overlap
     ethr =  6.63E-07,  avg # of iterations =  2.2

     total cpu time spent up to now is        6.4 secs

     total energy              =     -91.15738626 Ry
     Harris-Foulkes estimate   =     -91.15739182 Ry
     estimated scf accuracy    <       0.00002093 Ry

     iteration #  6     ecut=    40.00 Ry     beta= 0.50
     Davidson diagonalization with overlap
     ethr =  6.54E-08,  avg # of iterations =  2.0

     total cpu time spent up to now is        7.2 secs

     total energy              =     -91.15738859 Ry
     Harris-Foulkes estimate   =     -91.15738988 Ry
     estimated scf accuracy    <       0.00000299 Ry

     iteration #  7     ecut=    40.00 Ry     beta= 0.50
     Davidson diagonalization with overlap
     ethr =  9.35E-09,  avg # of iterations =  2.0

     total cpu time spent up to now is        8.0 secs

     total energy              =     -91.15738910 Ry
     Harris-Foulkes estimate   =     -91.15738908 Ry
     estimated scf accuracy    <       0.00000007 Ry

     iteration #  8     ecut=    40.00 Ry     beta= 0.50
     Davidson diagonalization with overlap
     ethr =  2.04E-10,  avg # of iterations =  2.6

     total cpu time spent up to now is        8.9 secs

     total energy              =     -91.15738912 Ry
     Harris-Foulkes estimate   =     -91.15738912 Ry
     estimated scf accuracy    <       0.00000001 Ry

     iteration #  9     ecut=    40.00 Ry     beta= 0.50
     Davidson diagonalization with overlap
     ethr =  3.40E-11,  avg # of iterations =  2.0

     total cpu time spent up to now is        9.8 secs

     End of self-consistent calculation

          k = 0.0000 0.0000 0.0000 (  2653 PWs)   bands (ev):

   -15.0092 -13.5485 -13.5465  -9.8299  -8.6551  -2.8833  -2.8811  -2.8608
    -1.9191  -1.1694  -1.1678  -0.5761  -0.5745   1.3792   1.5752   2.2177
     6.4930   7.5698   9.5061   9.5065

          k =-0.0000-0.0004 0.6948 (  2619 PWs)   bands (ev):

   -14.3014 -12.8549 -12.8529  -9.2238  -8.0909  -4.3483  -3.6291  -3.6268
    -2.1121  -2.1103  -2.0254  -0.8792  -0.3713  -0.3696   0.1486   3.0763
     6.0525   8.5006  10.5796  10.5818

          k =-0.0000-0.0009 1.3896 (  2620 PWs)   bands (ev):

   -12.2182 -10.8333 -10.8311  -9.0142  -7.4204  -7.3967  -7.3948  -5.6173
    -4.5041  -2.8746  -1.9596  -1.9576   0.3609   1.6834   1.6852   3.6878
     5.5859   7.2592   7.2613   9.4660

          k = 0.0176 0.6611-0.0001 (  2613 PWs)   bands (ev):

   -14.9853 -13.5291 -13.5243  -9.8155  -8.6429  -3.2026  -2.8784  -2.8740
    -1.9162  -1.5052  -1.4465  -0.5733  -0.5716   1.3810   1.5769   2.0303
     6.1839   9.5954  11.0499  11.4368

          k = 0.0176 0.6606 0.6947 (  2621 PWs)   bands (ev):

   -14.2789 -12.8366 -12.8321  -9.2105  -8.0791  -4.3416  -3.6233  -3.6205
    -2.3539  -2.1088  -2.1053  -0.8761  -0.6914  -0.6348   0.1511   2.8944
     5.8340  10.4444  10.4784  10.4831

          k = 0.0176 0.6602 1.3895 (  2620 PWs)   bands (ev):

   -12.1994 -10.8177 -10.8139  -9.0004  -7.4101  -7.3859  -7.3833  -5.6090
    -4.4973  -2.8696  -1.9574  -1.9547   0.0776   1.4302   1.4699   3.4862
     5.4241   6.9818   7.0093   9.3412

          k = 0.0176 0.6619-1.3897 (  2620 PWs)   bands (ev):

   -12.1993 -10.8177 -10.8137  -9.0005  -7.4101  -7.3861  -7.3831  -5.6089
    -4.4974  -2.8696  -1.9572  -1.9549   0.0765   1.4300   1.4688   3.4871
     5.4234   6.9830   7.0098   9.3418

          k = 0.0176 0.6615-0.6949 (  2621 PWs)   bands (ev):

   -14.2789 -12.8366 -12.8320  -9.2105  -8.0791  -4.3417  -3.6238  -3.6201
    -2.3544  -2.1083  -2.1059  -0.8761  -0.6918  -0.6356   0.1511   2.8941
     5.8339  10.4452  10.4832  10.4842

          k =-0.5006-0.0146 0.0000 (  2632 PWs)   bands (ev):

   -14.6415 -14.6412 -11.7679 -11.7677  -6.1719  -6.1718  -2.4297  -2.4295
    -1.5629  -1.5623   0.1617   0.1622   0.7001   0.7007   0.7532   0.7535
     8.0543   8.0544   8.5104   8.5106

          k =-0.5006-0.0151 0.6948 (  2621 PWs)   bands (ev):

   -13.9367 -13.9364 -11.1028 -11.1027  -5.8527  -5.8523  -3.8718  -3.8712
    -1.9624  -1.9618  -1.6038  -1.6036  -0.1722  -0.1715   1.5251   1.5254
     7.9046   7.9049   8.9832   8.9836

          k =-0.5006-0.0155 1.3896 (  2610 PWs)   bands (ev):

   -11.8647 -11.8645  -9.3470  -9.3466  -8.2482  -8.2475  -5.8438  -5.8435
    -3.8557  -3.8555  -1.8660  -1.8656   0.7117   0.7119   2.9576   2.9580
     6.0975   6.0983   8.6914   8.6920

          k =-0.4830 0.6464-0.0001 (  2623 PWs)   bands (ev):

   -14.6195 -14.6171 -11.7530 -11.7477  -6.1654  -6.1602  -2.7789  -2.7475
    -1.5604  -1.5597   0.1627   0.1648   0.4619   0.5330   0.7013   0.7025
     8.2433   8.3137   9.9122  10.1920

          k =-0.4830 0.6460 0.6947 (  2625 PWs)   bands (ev):

   -13.9160 -13.9137 -11.0888 -11.0839  -5.8459  -5.8423  -3.8659  -3.8647
    -1.9584  -1.9570  -1.9384  -1.9081  -0.1705  -0.1697   1.2481   1.3158
     7.7233   7.7771  10.7822  11.0501

          k =-0.4830 0.6456 1.3895 (  2618 PWs)   bands (ev):

   -11.8474 -11.8456  -9.3339  -9.3314  -8.2360  -8.2357  -5.8362  -5.8334
    -3.8516  -3.8488  -1.8633  -1.8625   0.4287   0.4535   2.7482   2.7783
     5.8634   5.8650   8.4651   8.5028

          k =-0.4830 0.6473-1.3897 (  2618 PWs)   bands (ev):

   -11.8473 -11.8455  -9.3342  -9.3310  -8.2364  -8.2354  -5.8365  -5.8333
    -3.8514  -3.8490  -1.8636  -1.8623   0.4280   0.4522   2.7488   2.7776
     5.8644   5.8646   8.4661   8.5035

          k =-0.4830 0.6469-0.6949 (  2625 PWs)   bands (ev):

   -13.9159 -13.9136 -11.0888 -11.0838  -5.8462  -5.8419  -3.8656  -3.8650
    -1.9589  -1.9566  -1.9389  -1.9088  -0.1703  -0.1698   1.2479   1.3150
     7.7238   7.7769  10.7876  11.0556

     the Fermi energy is     3.8503 ev

!    total energy              =     -91.15738912 Ry
     Harris-Foulkes estimate   =     -91.15738912 Ry
     estimated scf accuracy    <          1.8E-09 Ry

     The total energy is the sum of the following terms:

     one-electron contribution =     -68.11306682 Ry
     hartree contribution      =      46.83055569 Ry
     xc contribution           =     -27.95984103 Ry
     ewald contribution        =     -41.91585629 Ry
     smearing contrib. (-TS)   =       0.00081934 Ry

     convergence has been achieved in   9 iterations

     Forces acting on atoms (cartesian axes, Ry/au):

     atom    1 type  1   force =    -0.02174879    0.00061986    0.00011630
     atom    2 type  1   force =     0.02123307   -0.00061805   -0.00010148
     atom    3 type  1   force =     0.02164178   -0.00063121   -0.00009245
     atom    4 type  1   force =    -0.02114282    0.00059332    0.00010366
     atom    5 type  1   force =     0.02166972   -0.00057751   -0.00004437
     atom    6 type  1   force =    -0.02160062    0.00069456    0.00008127
     atom    7 type  1   force =     0.02108450   -0.00067047   -0.00009107
     atom    8 type  1   force =    -0.02113683    0.00058950    0.00002815

     Total force =     0.060580     Total SCF correction =     0.000112


     Computing stress (Cartesian axis) and pressure

          total   stress  (Ry/bohr**3)                   (kbar)     P=       -0.50
  -0.00018868   0.00000252  -0.00000043          -27.76        0.37       -0.06
   0.00000252  -0.00003928   0.00000008            0.37       -5.78        0.01
  -0.00000043   0.00000008   0.00021776           -0.06        0.01       32.03


     BFGS Geometry Optimization

     number of scf cycles    =   1
     number of bfgs steps    =   0

     enthalpy new            =     -91.1573473938 Ry

     new trust radius        =       0.0269662382 bohr
     new conv_thr            =       0.0000000100 Ry

     new unit-cell volume =    613.58503 a.u.^3 (    90.92392 Ang^3 )
     density =      1.75324 g/cm^3

CELL_PARAMETERS (bohr)
  16.090687584  -0.428458604  -0.000273746
  -0.236661452   8.153257134   0.005147600
   0.000049974   0.000908992   4.680635977

ATOMIC_POSITIONS (crystal)
C             0.3512158163        0.5319700901        0.0706139485
C             0.4364212623        0.5319184503        0.5705812370
C             0.1864355385        0.5320241680        0.0706211762
C             0.6012222798        0.5318028122        0.5705882339
C             0.6864243653        0.5317698435        0.0705704984
C             0.8512141235        0.5318137339        1.0706174119
C             0.9364169704        0.5319005369        0.5706024792
C             0.1012326439        0.5320043651        0.5706390149



     Writing output data file ./pp.save/
     NEW-OLD atomic charge density approx. for the potential
     extrapolated charge   31.99084, renormalised to   32.00000

     total cpu time spent up to now is        9.8 secs

     Self-consistent Calculation

     iteration #  1     ecut=    40.00 Ry     beta= 0.50
     Davidson diagonalization with overlap
     ethr =  1.00E-06,  avg # of iterations =  5.5

     total cpu time spent up to now is       11.8 secs

     total energy              =     -91.15587854 Ry
     Harris-Foulkes estimate   =     -91.17284796 Ry
     estimated scf accuracy    <       0.00132925 Ry

     iteration #  2     ecut=    40.00 Ry     beta= 0.50
     Davidson diagonalization with overlap
     ethr =  4.15E-06,  avg # of iterations =  1.3

     total cpu time spent up to now is       12.5 secs

     total energy              =     -91.15587634 Ry
     Harris-Foulkes estimate   =     -91.15595938 Ry
     estimated scf accuracy    <       0.00016352 Ry

     iteration #  3     ecut=    40.00 Ry     beta= 0.50
     Davidson diagonalization with overlap
     ethr =  5.11E-07,  avg # of iterations =  2.0

     total cpu time spent up to now is       13.4 secs

     total energy              =     -91.15590591 Ry
     Harris-Foulkes estimate   =     -91.15590635 Ry
     estimated scf accuracy    <       0.00000342 Ry

     iteration #  4     ecut=    40.00 Ry     beta= 0.50
     Davidson diagonalization with overlap
     ethr =  1.07E-08,  avg # of iterations =  2.2

     total cpu time spent up to now is       14.3 secs

     total energy              =     -91.15590647 Ry
     Harris-Foulkes estimate   =     -91.15590680 Ry
     estimated scf accuracy    <       0.00000139 Ry

     iteration #  5     ecut=    40.00 Ry     beta= 0.50
     Davidson diagonalization with overlap
     ethr =  4.33E-09,  avg # of iterations =  2.1

     total cpu time spent up to now is       15.1 secs

     total energy              =     -91.15590669 Ry
     Harris-Foulkes estimate   =     -91.15590690 Ry
     estimated scf accuracy    <       0.00000074 Ry

     iteration #  6     ecut=    40.00 Ry     beta= 0.50
     Davidson diagonalization with overlap
     ethr =  2.31E-09,  avg # of iterations =  2.0

     total cpu time spent up to now is       15.9 secs

     End of self-consistent calculation

          k = 0.0000 0.0000 0.0000 (  2653 PWs)   bands (ev):

   -14.9997 -13.5284 -13.5272  -9.6234  -8.8667  -2.9871  -2.9858  -2.8512
    -1.8700  -1.1225  -1.1215  -0.4453  -0.4443   1.2556   1.7049   2.4795
     6.2068   7.5779   9.5344   9.5346

          k = 0.0000-0.0004 0.6910 (  2619 PWs)   bands (ev):

   -14.2979 -12.8408 -12.8395  -9.0136  -8.3369  -4.2826  -3.7168  -3.7151
    -2.0333  -2.0114  -2.0100  -0.5950  -0.3474  -0.3463  -0.1506   3.3253
     5.7737   8.4945  10.5322  10.5336

          k = 0.0000-0.0009 1.3821 (  2620 PWs)   bands (ev):

   -12.2361 -10.8499 -10.8485  -9.1164  -7.3634  -7.3622  -7.1983  -5.7242
    -4.2595  -3.1086  -1.9672  -1.9660   0.2957   1.6149   1.6162   3.5125
     5.7959   7.3458   7.3470   9.6088

          k = 0.0176 0.6617-0.0001 (  2613 PWs)   bands (ev):

   -14.9755 -13.5091 -13.5045  -9.6087  -8.8550  -3.1954  -2.9826  -2.9786
    -1.8669  -1.4627  -1.4032  -0.4424  -0.4413   1.2574   1.7067   2.2851
     5.9187   9.6088  11.1223  11.5176

          k = 0.0176 0.6613 0.6909 (  2621 PWs)   bands (ev):

   -14.2752 -12.8226 -12.8183  -9.0000  -8.3255  -4.2755  -3.7116  -3.7081
    -2.3636  -2.0072  -2.0056  -0.6705  -0.6137  -0.5916  -0.1482   3.1367
     5.5656  10.3888  10.4262  10.4728

          k = 0.0176 0.6608 1.3820 (  2620 PWs)   bands (ev):

   -12.2171 -10.8344 -10.8308  -9.1025  -7.3527  -7.3499  -7.1876  -5.7160
    -4.2524  -3.1038  -1.9648  -1.9632   0.0127   1.3637   1.4016   3.3135
     5.6286   7.0544   7.0792   9.4803

          k = 0.0176 0.6626-1.3822 (  2620 PWs)   bands (ev):

   -12.2170 -10.8342 -10.8308  -9.1026  -7.3524  -7.3504  -7.1875  -5.7159
    -4.2524  -3.1038  -1.9652  -1.9629   0.0115   1.3625   1.4015   3.3144
     5.6279   7.0543   7.0809   9.4810

          k = 0.0176 0.6621-0.6912 (  2621 PWs)   bands (ev):

   -14.2751 -12.8225 -12.8183  -9.0000  -8.3254  -4.2756  -3.7109  -3.7089
    -2.3641  -2.0082  -2.0047  -0.6712  -0.6141  -0.5917  -0.1483   3.1363
     5.5656  10.3888  10.4272  10.4785

          k =-0.5029-0.0146 0.0000 (  2632 PWs)   bands (ev):

   -14.6294 -14.6293 -11.7295 -11.7291  -6.2331  -6.2329  -2.4118  -2.4117
    -1.4945  -1.4943  -0.0597  -0.0592   0.8723   0.8726   0.9418   0.9424
     8.0684   8.0685   8.3656   8.3662

          k =-0.5029-0.0150 0.6911 (  2621 PWs)   bands (ev):

   -13.9306 -13.9305 -11.0707 -11.0703  -5.9563  -5.9558  -3.7700  -3.7696
    -1.9348  -1.9339  -1.6046  -1.6045  -0.2005  -0.1994   1.6107   1.6112
     7.7880   7.7887   8.9852   8.9855

          k =-0.5029-0.0155 1.3821 (  2610 PWs)   bands (ev):

   -11.8813 -11.8812  -9.4208  -9.4202  -8.1511  -8.1503  -5.7733  -5.7727
    -3.8665  -3.8661  -1.9227  -1.9222   0.6469   0.6473   2.8524   2.8533
     6.2247   6.2256   8.8024   8.8027

          k =-0.4853 0.6471-0.0001 (  2623 PWs)   bands (ev):

   -14.6073 -14.6049 -11.7145 -11.7090  -6.2267  -6.2214  -2.7640  -2.7322
    -1.4918  -1.4915  -0.0586  -0.0566   0.5730   0.6468   0.9432   0.9444
     8.1210   8.1944   9.9333  10.2144

          k =-0.4853 0.6467 0.6909 (  2625 PWs)   bands (ev):

   -13.9098 -13.9075 -11.0566 -11.0514  -5.9499  -5.9455  -3.7635  -3.7631
    -1.9416  -1.9309  -1.9283  -1.9109  -0.1985  -0.1975   1.3282   1.3975
     7.6127   7.6668  10.7808  11.0474

          k =-0.4853 0.6462 1.3820 (  2618 PWs)   bands (ev):

   -11.8638 -11.8619  -9.4077  -9.4047  -8.1388  -8.1379  -5.7656  -5.7621
    -3.8620  -3.8598  -1.9204  -1.9189   0.3650   0.3891   2.6462   2.6726
     5.9798   5.9842   8.5623   8.6004

          k =-0.4853 0.6480-1.3822 (  2618 PWs)   bands (ev):

   -11.8637 -11.8619  -9.4072  -9.4052  -8.1388  -8.1380  -5.7653  -5.7626
    -3.8624  -3.8594  -1.9200  -1.9193   0.3638   0.3883   2.6455   2.6733
     5.9811   5.9834   8.5626   8.6018

          k =-0.4853 0.6475-0.6912 (  2625 PWs)   bands (ev):

   -13.9097 -13.9074 -11.0565 -11.0514  -5.9494  -5.9460  -3.7640  -3.7627
    -1.9422  -1.9302  -1.9291  -1.9115  -0.1985  -0.1975   1.3276   1.3973
     7.6125   7.6674  10.7863  11.0527

     the Fermi energy is     3.6233 ev

!    total energy              =     -91.15590679 Ry
     Harris-Foulkes estimate   =     -91.15590679 Ry
     estimated scf accuracy    <          2.9E-09 Ry

     The total energy is the sum of the following terms:

     one-electron contribution =     -67.86962988 Ry
     hartree contribution      =      46.71144119 Ry
     xc contribution           =     -27.95590097 Ry
     ewald contribution        =     -42.04340861 Ry
     smearing contrib. (-TS)   =       0.00159148 Ry

     convergence has been achieved in   6 iterations

     Forces acting on atoms (cartesian axes, Ry/au):

     atom    1 type  1   force =     0.03914920   -0.00104759   -0.00012898
     atom    2 type  1   force =    -0.03878265    0.00102887    0.00014290
     atom    3 type  1   force =    -0.03907702    0.00102423    0.00006993
     atom    4 type  1   force =     0.03877038   -0.00103862   -0.00008247
     atom    5 type  1   force =    -0.03901510    0.00106833    0.00012318
     atom    6 type  1   force =     0.03896608   -0.00097205   -0.00011108
     atom    7 type  1   force =    -0.03865443    0.00097132    0.00010023
     atom    8 type  1   force =     0.03864354   -0.00103449   -0.00011372

     Total force =     0.110016     Total SCF correction =     0.000084


     Computing stress (Cartesian axis) and pressure

          total   stress  (Ry/bohr**3)                   (kbar)     P=       -1.56
   0.00026411  -0.00000968   0.00000054           38.85       -1.42        0.08
  -0.00000968  -0.00004101  -0.00000003           -1.42       -6.03       -0.00
   0.00000054  -0.00000003  -0.00025489            0.08       -0.00      -37.50


     number of scf cycles    =   2
     number of bfgs steps    =   1

     enthalpy old            =     -91.1573473938 Ry
     enthalpy new            =     -91.1558650782 Ry

     CASE: enthalpy_new > enthalpy_old

     new trust radius        =       0.0103267775 bohr
     new conv_thr            =       0.0000000100 Ry

     new unit-cell volume =    613.69688 a.u.^3 (    90.94049 Ang^3 )
     density =      1.75292 g/cm^3

CELL_PARAMETERS (bohr)
  16.137612746  -0.429344931  -0.000166908
  -0.237669009   8.158202762   0.005118330
   0.000080735   0.000903463   4.665056667

ATOMIC_POSITIONS (crystal)
C             0.3520429814        0.5319669602        0.0705986075
C             0.4356137260        0.5319224778        0.5705946192
C             0.1856124596        0.5320283691        0.0706333660
C             0.6020264082        0.5318004680        0.5705745621
C             0.6856001631        0.5317699397        0.0705763410
C             0.8520355655        0.5318046739        1.0706067052
C             0.9356151478        0.5319088155        0.5706144827
C             0.1020365484        0.5320022959        0.5706353163



     Writing output data file ./pp.save/
     NEW-OLD atomic charge density approx. for the potential
     extrapolated charge   32.00583, renormalised to   32.00000

     total cpu time spent up to now is       16.0 secs

     Self-consistent Calculation

     iteration #  1     ecut=    40.00 Ry     beta= 0.50
     Davidson diagonalization with overlap
     ethr =  1.00E-06,  avg # of iterations =  5.3

     total cpu time spent up to now is       17.9 secs

     total energy              =     -91.15837521 Ry
     Harris-Foulkes estimate   =     -91.14819888 Ry
     estimated scf accuracy    <       0.00049607 Ry

     iteration #  2     ecut=    40.00 Ry     beta= 0.50
     Davidson diagonalization with overlap
     ethr =  1.55E-06,  avg # of iterations =  1.7

     total cpu time spent up to now is       18.6 secs

     total energy              =     -91.15837530 Ry
     Harris-Foulkes estimate   =     -91.15840616 Ry
     estimated scf accuracy    <       0.00006156 Ry

     iteration #  3     ecut=    40.00 Ry     beta= 0.50
     Davidson diagonalization with overlap
     ethr =  1.92E-07,  avg # of iterations =  2.0

     total cpu time spent up to now is       19.6 secs

     total energy              =     -91.15838603 Ry
     Harris-Foulkes estimate   =     -91.15838614 Ry
     estimated scf accuracy    <       0.00000121 Ry

     iteration #  4     ecut=    40.00 Ry     beta= 0.50
     Davidson diagonalization with overlap
     ethr =  3.80E-09,  avg # of iterations =  2.6

     total cpu time spent up to now is       20.7 secs

     total energy              =     -91.15838623 Ry
     Harris-Foulkes estimate   =     -91.15838633 Ry
     estimated scf accuracy    <       0.00000046 Ry

     iteration #  5     ecut=    40.00 Ry     beta= 0.50
     Davidson diagonalization with overlap
     ethr =  1.43E-09,  avg # of iterations =  2.1

     total cpu time spent up to now is       21.7 secs

     total energy              =     -91.15838629 Ry
     Harris-Foulkes estimate   =     -91.15838639 Ry
     estimated scf accuracy    <       0.00000031 Ry

     iteration #  6     ecut=    40.00 Ry     beta= 0.50
     Davidson diagonalization with overlap
     ethr =  9.60E-10,  avg # of iterations =  2.0

     total cpu time spent up to now is       22.6 secs

     End of self-consistent calculation

          k = 0.0000 0.0000 0.0000 (  2653 PWs)   bands (ev):

   -15.0047 -13.5392 -13.5384  -9.7510  -8.7348  -2.9222  -2.9213  -2.8561
    -1.8984  -1.1498  -1.1491  -0.5236  -0.5229   1.4515   1.5043   2.3180
     6.3833   7.5729   9.5173   9.5175

          k =-0.0000-0.0004 0.6934 (  2619 PWs)   bands (ev):

   -14.2992 -12.8478 -12.8469  -9.1435  -8.1839  -4.3221  -3.6595  -3.6586
    -2.0747  -2.0740  -2.0275  -0.7700  -0.3604  -0.3597   0.0329   3.1717
     5.9456   8.4984  10.5600  10.5608

          k =-0.0000-0.0009 1.3867 (  2620 PWs)   bands (ev):

   -12.2237 -10.8369 -10.8360  -9.0500  -7.3827  -7.3819  -7.3355  -5.6604
    -4.4103  -2.9650  -1.9641  -1.9633   0.3368   1.6589   1.6597   3.6212
     5.6661   7.2920   7.2928   9.5200

          k = 0.0176 0.6613-0.0001 (  2613 PWs)   bands (ev):

   -14.9808 -13.5201 -13.5157  -9.7365  -8.7228  -3.1989  -2.9178  -2.9139
    -1.8954  -1.4877  -1.4287  -0.5208  -0.5200   1.4532   1.5061   2.1280
     6.0824   9.6010  11.0780  11.4680

          k = 0.0176 0.6609 0.6932 (  2621 PWs)   bands (ev):

   -14.2766 -12.8297 -12.8256  -9.1301  -8.1722  -4.3153  -3.6542  -3.6518
    -2.3567  -2.0714  -2.0689  -0.7668  -0.6821  -0.6255   0.0353   2.9873
     5.7311  10.4223  10.4604  10.4769

          k = 0.0176 0.6604 1.3866 (  2620 PWs)   bands (ev):

   -12.2048 -10.8216 -10.8183  -9.0361  -7.3721  -7.3699  -7.3250  -5.6521
    -4.4034  -2.9601  -1.9620  -1.9603   0.0536   1.4060   1.4450   3.4206
     5.5022   7.0089   7.0354   9.3938

          k = 0.0176 0.6622-1.3868 (  2620 PWs)   bands (ev):

   -12.2047 -10.8215 -10.8182  -9.0362  -7.3722  -7.3700  -7.3249  -5.6520
    -4.4034  -2.9602  -1.9620  -1.9603   0.0524   1.4054   1.4443   3.4215
     5.5015   7.0096   7.0363   9.3945

          k = 0.0176 0.6617-0.6935 (  2621 PWs)   bands (ev):

   -14.2765 -12.8297 -12.8256  -9.1301  -8.1722  -4.3153  -3.6543  -3.6518
    -2.3572  -2.0715  -2.0690  -0.7668  -0.6826  -0.6261   0.0353   2.9869
     5.7311  10.4228  10.4609  10.4826

          k =-0.5015-0.0146 0.0000 (  2632 PWs)   bands (ev):

   -14.6360 -14.6358 -11.7511 -11.7510  -6.1961  -6.1960  -2.4218  -2.4217
    -1.5347  -1.5344   0.0773   0.0774   0.7944   0.7946   0.8008   0.8008
     8.0599   8.0599   8.4532   8.4533

          k =-0.5015-0.0150 0.6934 (  2621 PWs)   bands (ev):

   -13.9334 -13.9332 -11.0880 -11.0880  -5.8935  -5.8933  -3.8316  -3.8313
    -1.9434  -1.9433  -1.6031  -1.6029  -0.1904  -0.1903   1.5602   1.5603
     7.8578   7.8580   8.9841   8.9845

          k =-0.5015-0.0155 1.3867 (  2610 PWs)   bands (ev):

   -11.8696 -11.8693  -9.3705  -9.3704  -8.2119  -8.2118  -5.8140  -5.8140
    -3.8620  -3.8618  -1.8909  -1.8908   0.6879   0.6881   2.9195   2.9196
     6.1450   6.1452   8.7334   8.7337

          k =-0.4839 0.6467-0.0001 (  2623 PWs)   bands (ev):

   -14.6139 -14.6115 -11.7362 -11.7309  -6.1897  -6.1844  -2.7722  -2.7407
    -1.5321  -1.5316   0.0781   0.0801   0.5062   0.5783   0.7955   0.7966
     8.1951   8.2667   9.9209  10.2013

          k =-0.4839 0.6463 0.6932 (  2625 PWs)   bands (ev):

   -13.9126 -13.9103 -11.0741 -11.0690  -5.8870  -5.8831  -3.8256  -3.8247
    -1.9411  -1.9380  -1.9373  -1.9082  -0.1887  -0.1885   1.2808   1.3491
     7.6789   7.7329  10.7825  11.0500

          k =-0.4839 0.6458 1.3866 (  2618 PWs)   bands (ev):

   -11.8521 -11.8503  -9.3575  -9.3549  -8.1999  -8.1996  -5.8065  -5.8035
    -3.8579  -3.8552  -1.8885  -1.8875   0.4052   0.4297   2.7109   2.7396
     5.9076   5.9083   8.5019   8.5398

          k =-0.4839 0.6476-1.3868 (  2618 PWs)   bands (ev):

   -11.8521 -11.8502  -9.3576  -9.3548  -8.2000  -8.1996  -5.8066  -5.8036
    -3.8578  -3.8552  -1.8886  -1.8875   0.4043   0.4286   2.7110   2.7394
     5.9079   5.9086   8.5026   8.5408

          k =-0.4839 0.6471-0.6935 (  2625 PWs)   bands (ev):

   -13.9125 -13.9103 -11.0741 -11.0690  -5.8870  -5.8831  -3.8256  -3.8248
    -1.9414  -1.9380  -1.9376  -1.9088  -0.1886  -0.1885   1.2804   1.3486
     7.6792   7.7330  10.7879  11.0554

     the Fermi energy is     3.7742 ev

!    total energy              =     -91.15838634 Ry
     Harris-Foulkes estimate   =     -91.15838634 Ry
     estimated scf accuracy    <          1.1E-09 Ry

     The total energy is the sum of the following terms:

     one-electron contribution =     -68.01019597 Ry
     hartree contribution      =      46.78047497 Ry
     xc contribution           =     -27.95744789 Ry
     ewald contribution        =     -41.97217255 Ry
     smearing contrib. (-TS)   =       0.00095510 Ry

     convergence has been achieved in   6 iterations

     Forces acting on atoms (cartesian axes, Ry/au):

     atom    1 type  1   force =     0.00044966    0.00001023    0.00001796
     atom    2 type  1   force =    -0.00069434   -0.00001544   -0.00000351
     atom    3 type  1   force =    -0.00051266   -0.00002610   -0.00002806
     atom    4 type  1   force =     0.00070962   -0.00000327    0.00002946
     atom    5 type  1   force =    -0.00046194    0.00002443    0.00002276
     atom    6 type  1   force =     0.00051571    0.00008502    0.00000426
     atom    7 type  1   force =    -0.00069609   -0.00006986   -0.00001448
     atom    8 type  1   force =     0.00069003   -0.00000501   -0.00002839

     Total force =     0.001705     Total SCF correction =     0.000053


     Computing stress (Cartesian axis) and pressure

          total   stress  (Ry/bohr**3)                   (kbar)     P=       -1.67
  -0.00003485  -0.00000172  -0.00000004           -5.13       -0.25       -0.01
  -0.00000172  -0.00003905   0.00000004           -0.25       -5.74        0.01
  -0.00000004   0.00000004   0.00003979           -0.01        0.01        5.85


     number of scf cycles    =   3
     number of bfgs steps    =   1

     enthalpy old            =     -91.1573473938 Ry
     enthalpy new            =     -91.1583446195 Ry

     CASE: enthalpy_new < enthalpy_old

     new trust radius        =       0.0049812499 bohr
     new conv_thr            =            1.0E-10 Ry

     new unit-cell volume =    613.14875 a.u.^3 (    90.85927 Ang^3 )
     density =      1.75449 g/cm^3

CELL_PARAMETERS (bohr)
  16.123506546  -0.429639984  -0.000185008
  -0.237827137   8.150019574   0.005132086
   0.000075537   0.000907369   4.669663472

ATOMIC_POSITIONS (crystal)
C             0.3520799879        0.5319697359        0.0706024430
C             0.4355612962        0.5319182286        0.5705939777
C             0.1855714454        0.5320233838        0.0706272562
C             0.6020797437        0.5318024174        0.5705809703
C             0.6855624679        0.5317714780        0.0705814554
C             0.8520768679        0.5318170776        1.0706075319
C             0.9355625623        0.5318977162        0.5706113976
C             0.1020886287        0.5320039625        0.5706289680



     Writing output data file ./pp.save/
     NEW-OLD atomic charge density approx. for the potential
     extrapolated charge   31.97139, renormalised to   32.00000

     total cpu time spent up to now is       22.6 secs

     Self-consistent Calculation

     iteration #  1     ecut=    40.00 Ry     beta= 0.50
     Davidson diagonalization with overlap
     ethr =  1.00E-06,  avg # of iterations =  2.2

     Threshold (ethr) on eigenvalues was too large:
     Diagonalizing with lowered threshold

     Davidson diagonalization with overlap
     ethr =  4.08E-08,  avg # of iterations =  2.2

     total cpu time spent up to now is       24.6 secs

     total energy              =     -91.15840324 Ry
     Harris-Foulkes estimate   =     -91.20932688 Ry
     estimated scf accuracy    <       0.00001318 Ry

     iteration #  2     ecut=    40.00 Ry     beta= 0.50
     Davidson diagonalization with overlap
     ethr =  4.12E-08,  avg # of iterations =  3.1

     total cpu time spent up to now is       26.0 secs

     total energy              =     -91.15843203 Ry
     Harris-Foulkes estimate   =     -91.15843531 Ry
     estimated scf accuracy    <       0.00001009 Ry

     iteration #  3     ecut=    40.00 Ry     beta= 0.50
     Davidson diagonalization with overlap
     ethr =  3.15E-08,  avg # of iterations =  1.5

     total cpu time spent up to now is       26.9 secs

     total energy              =     -91.15842996 Ry
     Harris-Foulkes estimate   =     -91.15843235 Ry
     estimated scf accuracy    <       0.00000366 Ry

     iteration #  4     ecut=    40.00 Ry     beta= 0.50
     Davidson diagonalization with overlap
     ethr =  1.14E-08,  avg # of iterations =  2.0

     total cpu time spent up to now is       28.1 secs

     total energy              =     -91.15843077 Ry
     Harris-Foulkes estimate   =     -91.15843081 Ry
     estimated scf accuracy    <       0.00000014 Ry

     iteration #  5     ecut=    40.00 Ry     beta= 0.50
     Davidson diagonalization with overlap
     ethr =  4.50E-10,  avg # of iterations =  1.2

     total cpu time spent up to now is       28.9 secs

     total energy              =     -91.15843075 Ry
     Harris-Foulkes estimate   =     -91.15843078 Ry
     estimated scf accuracy    <       0.00000006 Ry

     iteration #  6     ecut=    40.00 Ry     beta= 0.50
     Davidson diagonalization with overlap
     ethr =  1.84E-10,  avg # of iterations =  2.0

     total cpu time spent up to now is       30.1 secs

     total energy              =     -91.15843075 Ry
     Harris-Foulkes estimate   =     -91.15843076 Ry
     estimated scf accuracy    <          8.4E-09 Ry

     iteration #  7     ecut=    40.00 Ry     beta= 0.50
     Davidson diagonalization with overlap
     ethr =  2.61E-11,  avg # of iterations =  2.0

     total cpu time spent up to now is       31.3 secs

     total energy              =     -91.15843076 Ry
     Harris-Foulkes estimate   =     -91.15843076 Ry
     estimated scf accuracy    <          7.3E-10 Ry

     iteration #  8     ecut=    40.00 Ry     beta= 0.50
     Davidson diagonalization with overlap
     ethr =  2.29E-12,  avg # of iterations =  2.0

     total cpu time spent up to now is       32.6 secs

     End of self-consistent calculation

          k = 0.0000 0.0000 0.0000 (  2653 PWs)   bands (ev):

   -14.9958 -13.5273 -13.5267  -9.7261  -8.7234  -2.8973  -2.8967  -2.8456
    -1.9152  -1.1364  -1.1360  -0.5370  -0.5365   1.4746   1.4966   2.3380
     6.3984   7.5838   9.5317   9.5318

          k =-0.0000-0.0004 0.6927 (  2619 PWs)   bands (ev):

   -14.2917 -12.8373 -12.8367  -9.1200  -8.1753  -4.3308  -3.6587  -3.6580
    -2.0589  -2.0585  -2.0186  -0.7696  -0.3489  -0.3484   0.0482   3.1900
     5.9540   8.5072  10.4540  10.4546

          k =-0.0000-0.0009 1.3853 (  2620 PWs)   bands (ev):

   -12.2207 -10.8313 -10.8307  -9.0544  -7.3811  -7.3806  -7.3167  -5.6490
    -4.3993  -2.9550  -1.9425  -1.9420   0.3413   1.6650   1.6655   3.6221
     5.6797   7.2962   7.2968   9.5273

          k = 0.0176 0.6620-0.0001 (  2613 PWs)   bands (ev):

   -14.9715 -13.5081 -13.5037  -9.7114  -8.7113  -3.1908  -2.8930  -2.8891
    -1.9122  -1.4769  -1.4174  -0.5341  -0.5336   1.4763   1.4985   2.1467
     6.0966   9.6180  11.0975  11.4887

          k = 0.0176 0.6615 0.6925 (  2621 PWs)   bands (ev):

   -14.2689 -12.8192 -12.8151  -9.1065  -8.1635  -4.3239  -3.6534  -3.6510
    -2.3502  -2.0557  -2.0533  -0.7663  -0.6731  -0.6159   0.0506   3.0043
     5.7386  10.4269  10.4653  10.4916

          k = 0.0176 0.6611 1.3852 (  2620 PWs)   bands (ev):

   -12.2016 -10.8160 -10.8127  -9.0404  -7.3705  -7.3683  -7.3061  -5.6407
    -4.3923  -2.9501  -1.9405  -1.9389   0.0558   1.4100   1.4493   3.4196
     5.5146   7.0104   7.0371   9.4000

          k = 0.0176 0.6628-1.3855 (  2620 PWs)   bands (ev):

   -12.2016 -10.8159 -10.8126  -9.0405  -7.3705  -7.3684  -7.3060  -5.6406
    -4.3923  -2.9501  -1.9405  -1.9389   0.0546   1.4094   1.4487   3.4206
     5.5139   7.0111   7.0381   9.4007

          k = 0.0176 0.6624-0.6928 (  2621 PWs)   bands (ev):

   -14.2688 -12.8192 -12.8151  -9.1065  -8.1635  -4.3239  -3.6534  -3.6511
    -2.3508  -2.0559  -2.0533  -0.7663  -0.6736  -0.6166   0.0506   3.0039
     5.7386  10.4274  10.4659  10.4973

          k =-0.5019-0.0146 0.0000 (  2632 PWs)   bands (ev):

   -14.6263 -14.6262 -11.7356 -11.7355  -6.1750  -6.1749  -2.4106  -2.4105
    -1.5506  -1.5504   0.1022   0.1022   0.7846   0.7846   0.8173   0.8173
     8.0717   8.0718   8.4702   8.4704

          k =-0.5019-0.0151 0.6927 (  2621 PWs)   bands (ev):

   -13.9251 -13.9250 -11.0741 -11.0740  -5.8791  -5.8790  -3.8355  -3.8354
    -1.9446  -1.9445  -1.5936  -1.5934  -0.1715  -0.1714   1.5745   1.5747
     7.8674   7.8677   8.9938   8.9942

          k =-0.5019-0.0155 1.3854 (  2610 PWs)   bands (ev):

   -11.8659 -11.8658  -9.3667  -9.3666  -8.2072  -8.2071  -5.8087  -5.8087
    -3.8436  -3.8435  -1.8739  -1.8738   0.6929   0.6930   2.9245   2.9247
     6.1525   6.1526   8.7390   8.7393

          k =-0.4843 0.6473-0.0001 (  2623 PWs)   bands (ev):

   -14.6040 -14.6016 -11.7206 -11.7151  -6.1686  -6.1632  -2.7635  -2.7317
    -1.5480  -1.5476   0.1030   0.1050   0.5206   0.5933   0.7857   0.7867
     8.2116   8.2837   9.9381  10.2196

          k =-0.4843 0.6469 0.6926 (  2625 PWs)   bands (ev):

   -13.9042 -13.9019 -11.0600 -11.0548  -5.8726  -5.8686  -3.8294  -3.8286
    -1.9411  -1.9390  -1.9313  -1.9009  -0.1697  -0.1696   1.2932   1.3620
     7.6876   7.7418  10.7969  11.0655

          k =-0.4843 0.6465 1.3852 (  2618 PWs)   bands (ev):

   -11.8483 -11.8464  -9.3537  -9.3509  -8.1950  -8.1947  -5.8011  -5.7981
    -3.8394  -3.8368  -1.8715  -1.8704   0.4080   0.4326   2.7144   2.7431
     5.9126   5.9137   8.5054   8.5437

          k =-0.4843 0.6482-1.3855 (  2618 PWs)   bands (ev):

   -11.8482 -11.8464  -9.3536  -9.3509  -8.1950  -8.1948  -5.8012  -5.7982
    -3.8394  -3.8367  -1.8715  -1.8704   0.4070   0.4316   2.7144   2.7430
     5.9130   5.9138   8.5061   8.5447

          k =-0.4843 0.6478-0.6928 (  2625 PWs)   bands (ev):

   -13.9041 -13.9018 -11.0599 -11.0548  -5.8726  -5.8686  -3.8295  -3.8286
    -1.9411  -1.9391  -1.9319  -1.9015  -0.1697  -0.1696   1.2928   1.3615
     7.6878   7.7420  10.8024  11.0709

     the Fermi energy is     3.7725 ev

!    total energy              =     -91.15843076 Ry
     Harris-Foulkes estimate   =     -91.15843076 Ry
     estimated scf accuracy    <          5.8E-12 Ry

     The total energy is the sum of the following terms:

     one-electron contribution =     -67.78879747 Ry
     hartree contribution      =      46.67896542 Ry
     xc contribution           =     -27.95652299 Ry
     ewald contribution        =     -42.09306334 Ry
     smearing contrib. (-TS)   =       0.00098762 Ry

     convergence has been achieved in   8 iterations

     Forces acting on atoms (cartesian axes, Ry/au):

     atom    1 type  1   force =     0.00011009   -0.00000032   -0.00001125
     atom    2 type  1   force =     0.00004856   -0.00001790    0.00002283
     atom    3 type  1   force =    -0.00010644   -0.00001581   -0.00001813
     atom    4 type  1   force =    -0.00003289    0.00000841    0.00001595
     atom    5 type  1   force =    -0.00008273    0.00003006    0.00002456
     atom    6 type  1   force =     0.00008485    0.00004488   -0.00000900
     atom    7 type  1   force =     0.00004871   -0.00003576    0.00000012
     atom    8 type  1   force =    -0.00007014   -0.00001356   -0.00002508

     Total force =     0.000236     Total SCF correction =     0.000001


     Computing stress (Cartesian axis) and pressure

          total   stress  (Ry/bohr**3)                   (kbar)     P=       -2.07
   0.00000407  -0.00000282   0.00000004            0.60       -0.41        0.01
  -0.00000282  -0.00003924   0.00000003           -0.41       -5.77        0.00
   0.00000004   0.00000003  -0.00000694            0.01        0.00       -1.02


     number of scf cycles    =   4
     number of bfgs steps    =   2

     enthalpy old            =     -91.1583446195 Ry
     enthalpy new            =     -91.1583890752 Ry

     CASE: enthalpy_new < enthalpy_old

     new trust radius        =       0.0091662752 bohr
     new conv_thr            =            1.0E-10 Ry

     new unit-cell volume =    611.99350 a.u.^3 (    90.68808 Ang^3 )
     density =      1.75780 g/cm^3

CELL_PARAMETERS (bohr)
  16.117899860  -0.430746441  -0.000174484
  -0.238701091   8.134993452   0.005146156
   0.000078593   0.000912885   4.671129407

ATOMIC_POSITIONS (crystal)
C             0.3520979497        0.5319716286        0.0706013444
C             0.4355482895        0.5319132621        0.5706000972
C             0.1855516386        0.5320177042        0.0706187205
C             0.6020945343        0.5318046875        0.5705890483
C             0.6855464578        0.5317768523        0.0705911166
C             0.8520951220        0.5318313184        1.0706054751
C             0.9355493743        0.5318862400        0.5706097057
C             0.1020996338        0.5320023069        0.5706184923



     Writing output data file ./pp.save/
     NEW-OLD atomic charge density approx. for the potential
     extrapolated charge   31.93959, renormalised to   32.00000

     total cpu time spent up to now is       32.7 secs

     Self-consistent Calculation

     iteration #  1     ecut=    40.00 Ry     beta= 0.50
     Davidson diagonalization with overlap
     ethr =  1.00E-06,  avg # of iterations =  2.2

     total cpu time spent up to now is       34.1 secs

     total energy              =     -91.15834828 Ry
     Harris-Foulkes estimate   =     -91.26525487 Ry
     estimated scf accuracy    <       0.00005661 Ry

     iteration #  2     ecut=    40.00 Ry     beta= 0.50
     Davidson diagonalization with overlap
     ethr =  1.77E-07,  avg # of iterations =  3.1

     total cpu time spent up to now is       36.0 secs

     total energy              =     -91.15847568 Ry
     Harris-Foulkes estimate   =     -91.15848954 Ry
     estimated scf accuracy    <       0.00004179 Ry

     iteration #  3     ecut=    40.00 Ry     beta= 0.50
     Davidson diagonalization with overlap
     ethr =  1.31E-07,  avg # of iterations =  1.0

     total cpu time spent up to now is       37.0 secs

     total energy              =     -91.15846656 Ry
     Harris-Foulkes estimate   =     -91.15847700 Ry
     estimated scf accuracy    <       0.00001509 Ry

     iteration #  4     ecut=    40.00 Ry     beta= 0.50
     Davidson diagonalization with overlap
     ethr =  4.72E-08,  avg # of iterations =  2.0

     total cpu time spent up to now is       38.4 secs

     total energy              =     -91.15847020 Ry
     Harris-Foulkes estimate   =     -91.15847087 Ry
     estimated scf accuracy    <       0.00000136 Ry

     iteration #  5     ecut=    40.00 Ry     beta= 0.50
     Davidson diagonalization with overlap
     ethr =  4.25E-09,  avg # of iterations =  2.0

     total cpu time spent up to now is       39.8 secs

     total energy              =     -91.15847026 Ry
     Harris-Foulkes estimate   =     -91.15847031 Ry
     estimated scf accuracy    <       0.00000015 Ry

     iteration #  6     ecut=    40.00 Ry     beta= 0.50
     Davidson diagonalization with overlap
     ethr =  4.76E-10,  avg # of iterations =  1.0

     total cpu time spent up to now is       40.9 secs

     total energy              =     -91.15847023 Ry
     Harris-Foulkes estimate   =     -91.15847026 Ry
     estimated scf accuracy    <       0.00000005 Ry

     iteration #  7     ecut=    40.00 Ry     beta= 0.50
     Davidson diagonalization with overlap
     ethr =  1.55E-10,  avg # of iterations =  2.0

     total cpu time spent up to now is       42.5 secs

     total energy              =     -91.15847024 Ry
     Harris-Foulkes estimate   =     -91.15847024 Ry
     estimated scf accuracy    <          2.0E-09 Ry

     iteration #  8     ecut=    40.00 Ry     beta= 0.50
     Davidson diagonalization with overlap
     ethr =  6.16E-12,  avg # of iterations =  2.2

     total cpu time spent up to now is       44.2 secs

     End of self-consistent calculation

          k = 0.0000 0.0000 0.0000 (  2653 PWs)   bands (ev):

   -14.9798 -13.5100 -13.5099  -9.7038  -8.7064  -2.8747  -2.8747  -2.8264
    -1.9076  -1.1161  -1.1161  -0.5278  -0.5277   1.4964   1.5080   2.3603
     6.4193   7.6052   9.5540   9.5541

          k =-0.0000-0.0004 0.6925 (  2619 PWs)   bands (ev):

   -14.2762 -12.8204 -12.8204  -9.0983  -8.1593  -4.3205  -3.6446  -3.6446
    -2.0396  -2.0396  -2.0000  -0.7555  -0.3293  -0.3292   0.0671   3.2117
     5.9722   8.5276  10.4754  10.4760

          k =-0.0000-0.0009 1.3849 (  2620 PWs)   bands (ev):

   -12.2067 -10.8160 -10.8160  -9.0426  -7.3670  -7.3670  -7.2965  -5.6320
    -4.3817  -2.9382  -1.9212  -1.9212   0.3582   1.6825   1.6827   3.6376
     5.6998   7.3136   7.3140   9.5452

          k = 0.0177 0.6632-0.0001 (  2613 PWs)   bands (ev):

   -14.9552 -13.4907 -13.4862  -9.6889  -8.6941  -3.1760  -2.8706  -2.8667
    -1.9045  -1.4612  -1.4008  -0.5250  -0.5246   1.4981   1.5099   2.1663
     6.1143   9.6504  11.1267  11.5169

          k = 0.0177 0.6628 0.6923 (  2621 PWs)   bands (ev):

   -14.2530 -12.8023 -12.7981  -9.0845  -8.1473  -4.3134  -3.6395  -3.6372
    -2.3359  -2.0365  -2.0340  -0.7521  -0.6579  -0.5999   0.0696   3.0234
     5.7542  10.4421  10.4812  10.5227

          k = 0.0177 0.6623 1.3848 (  2620 PWs)   bands (ev):

   -12.1872 -10.8006 -10.7973  -9.0284  -7.3564  -7.3543  -7.2857  -5.6235
    -4.3745  -2.9332  -1.9194  -1.9178   0.0689   1.4238   1.4638   3.4321
     5.5323   7.0238   7.0510   9.4160

          k = 0.0177 0.6641-1.3850 (  2620 PWs)   bands (ev):

   -12.1871 -10.8006 -10.7973  -9.0285  -7.3565  -7.3543  -7.2856  -5.6235
    -4.3746  -2.9332  -1.9194  -1.9178   0.0678   1.4232   1.4630   3.4331
     5.5317   7.0246   7.0520   9.4167

          k = 0.0177 0.6636-0.6926 (  2621 PWs)   bands (ev):

   -14.2529 -12.8022 -12.7981  -9.0845  -8.1472  -4.3135  -3.6396  -3.6372
    -2.3364  -2.0366  -2.0341  -0.7522  -0.6584  -0.6005   0.0696   3.0230
     5.7542  10.4427  10.4817  10.5285

          k =-0.5021-0.0147 0.0000 (  2632 PWs)   bands (ev):

   -14.6100 -14.6100 -11.7170 -11.7170  -6.1542  -6.1542  -2.3911  -2.3911
    -1.5426  -1.5425   0.1246   0.1247   0.7950   0.7951   0.8384   0.8385
     8.0933   8.0934   8.4917   8.4918

          k =-0.5021-0.0152 0.6925 (  2621 PWs)   bands (ev):

   -13.9094 -13.9093 -11.0560 -11.0560  -5.8606  -5.8605  -3.8235  -3.8233
    -1.9313  -1.9312  -1.5747  -1.5746  -0.1511  -0.1510   1.5949   1.5951
     7.8860   7.8862   9.0145   9.0149

          k =-0.5021-0.0156 1.3849 (  2610 PWs)   bands (ev):

   -11.8516 -11.8515  -9.3521  -9.3520  -8.1923  -8.1922  -5.7934  -5.7933
    -3.8237  -3.8237  -1.8544  -1.8543   0.7100   0.7101   2.9414   2.9415
     6.1707   6.1709   8.7566   8.7569

          k =-0.4844 0.6485-0.0001 (  2623 PWs)   bands (ev):

   -14.5874 -14.5849 -11.7018 -11.6962  -6.1477  -6.1422  -2.7486  -2.7163
    -1.5399  -1.5396   0.1254   0.1275   0.5378   0.6117   0.7962   0.7972
     8.2303   8.3035   9.9695  10.2531

          k =-0.4844 0.6480 0.6923 (  2625 PWs)   bands (ev):

   -13.8880 -13.8857 -11.0417 -11.0364  -5.8540  -5.8499  -3.8173  -3.8164
    -1.9276  -1.9256  -1.9169  -1.8860  -0.1493  -0.1491   1.3098   1.3797
     7.7037   7.7588  10.8267  11.0972

          k =-0.4844 0.6476 1.3848 (  2618 PWs)   bands (ev):

   -11.8337 -11.8318  -9.3388  -9.3360  -8.1798  -8.1796  -5.7856  -5.7825
    -3.8195  -3.8168  -1.8519  -1.8509   0.4212   0.4463   2.7282   2.7574
     5.9276   5.9286   8.5198   8.5588

          k =-0.4844 0.6493-1.3850 (  2618 PWs)   bands (ev):

   -11.8336 -11.8317  -9.3388  -9.3360  -8.1799  -8.1796  -5.7857  -5.7826
    -3.8195  -3.8168  -1.8520  -1.8508   0.4203   0.4452   2.7283   2.7572
     5.9279   5.9288   8.5205   8.5598

          k =-0.4844 0.6489-0.6926 (  2625 PWs)   bands (ev):

   -13.8880 -13.8856 -11.0416 -11.0364  -5.8540  -5.8499  -3.8173  -3.8164
    -1.9278  -1.9256  -1.9175  -1.8867  -0.1493  -0.1492   1.3094   1.3791
     7.7040   7.7589  10.8322  11.1026

     the Fermi energy is     3.7866 ev

!    total energy              =     -91.15847024 Ry
     Harris-Foulkes estimate   =     -91.15847024 Ry
     estimated scf accuracy    <          8.0E-11 Ry

     The total energy is the sum of the following terms:

     one-electron contribution =     -67.40038573 Ry
     hartree contribution      =      46.50435825 Ry
     xc contribution           =     -27.95688737 Ry
     ewald contribution        =     -42.30655690 Ry
     smearing contrib. (-TS)   =       0.00100151 Ry

     convergence has been achieved in   8 iterations

     Forces acting on atoms (cartesian axes, Ry/au):

     atom    1 type  1   force =    -0.00013681   -0.00001306    0.00001210
     atom    2 type  1   force =     0.00016111   -0.00000396   -0.00000591
     atom    3 type  1   force =     0.00014596   -0.00000748   -0.00001916
     atom    4 type  1   force =    -0.00015201    0.00000915    0.00002060
     atom    5 type  1   force =     0.00012510    0.00003390    0.00000533
     atom    6 type  1   force =    -0.00012851   -0.00000053    0.00000466
     atom    7 type  1   force =     0.00012522    0.00001622   -0.00001025
     atom    8 type  1   force =    -0.00014006   -0.00003424   -0.00000736

     Total force =     0.000401     Total SCF correction =     0.000003


     Computing stress (Cartesian axis) and pressure

          total   stress  (Ry/bohr**3)                   (kbar)     P=       -1.99
   0.00002019  -0.00000332  -0.00000003            2.97       -0.49       -0.00
  -0.00000332  -0.00003922   0.00000003           -0.49       -5.77        0.00
  -0.00000003   0.00000003  -0.00002165           -0.00        0.00       -3.19


     number of scf cycles    =   5
     number of bfgs steps    =   3

     enthalpy old            =     -91.1583890752 Ry
     enthalpy new            =     -91.1584286382 Ry

     CASE: enthalpy_new < enthalpy_old


     WARNING: bfgs curvature condition failed, Theta= 0.946
     new trust radius        =       0.0100921307 bohr
     new conv_thr            =            1.0E-10 Ry

     new unit-cell volume =    610.74665 a.u.^3 (    90.50332 Ang^3 )
     density =      1.76139 g/cm^3

CELL_PARAMETERS (bohr)
  16.114912359  -0.432067048  -0.000182901
  -0.239761061   8.118469658   0.005161217
   0.000076250   0.000919004   4.672002328

ATOMIC_POSITIONS (crystal)
C             0.3521053261        0.5319723128        0.0706038610
C             0.4355394184        0.5319090249        0.5706023790
C             0.1855422000        0.5320125043        0.0706090199
C             0.6021051293        0.5318070541        0.5705988059
C             0.6855394826        0.5317833922        0.0705989692
C             0.8521044873        0.5318432669        1.0706053563
C             0.9355388560        0.5318775499        0.5706061463
C             0.1021081003        0.5319988949        0.5706094624



     Writing output data file ./pp.save/
     NEW-OLD atomic charge density approx. for the potential
     extrapolated charge   31.93467, renormalised to   32.00000

     total cpu time spent up to now is       44.3 secs

     Self-consistent Calculation

     iteration #  1     ecut=    40.00 Ry     beta= 0.50
     Davidson diagonalization with overlap
     ethr =  1.00E-06,  avg # of iterations =  2.2

     total cpu time spent up to now is       46.0 secs

     total energy              =     -91.15837212 Ry
     Harris-Foulkes estimate   =     -91.27320527 Ry
     estimated scf accuracy    <       0.00006520 Ry

     iteration #  2     ecut=    40.00 Ry     beta= 0.50
     Davidson diagonalization with overlap
     ethr =  2.04E-07,  avg # of iterations =  3.1

     total cpu time spent up to now is       48.3 secs

     total energy              =     -91.15852028 Ry
     Harris-Foulkes estimate   =     -91.15853643 Ry
     estimated scf accuracy    <       0.00004887 Ry

     iteration #  3     ecut=    40.00 Ry     beta= 0.50
     Davidson diagonalization with overlap
     ethr =  1.53E-07,  avg # of iterations =  1.0

     total cpu time spent up to now is       49.5 secs

     total energy              =     -91.15850948 Ry
     Harris-Foulkes estimate   =     -91.15852179 Ry
     estimated scf accuracy    <       0.00001774 Ry

     iteration #  4     ecut=    40.00 Ry     beta= 0.50
     Davidson diagonalization with overlap
     ethr =  5.54E-08,  avg # of iterations =  2.0

     total cpu time spent up to now is       51.3 secs

     total energy              =     -91.15851377 Ry
     Harris-Foulkes estimate   =     -91.15851464 Ry
     estimated scf accuracy    <       0.00000174 Ry

     iteration #  5     ecut=    40.00 Ry     beta= 0.50
     Davidson diagonalization with overlap
     ethr =  5.43E-09,  avg # of iterations =  2.0

     total cpu time spent up to now is       53.1 secs

     total energy              =     -91.15851383 Ry
     Harris-Foulkes estimate   =     -91.15851391 Ry
     estimated scf accuracy    <       0.00000017 Ry

     iteration #  6     ecut=    40.00 Ry     beta= 0.50
     Davidson diagonalization with overlap
     ethr =  5.44E-10,  avg # of iterations =  1.6

     total cpu time spent up to now is       54.8 secs

     total energy              =     -91.15851383 Ry
     Harris-Foulkes estimate   =     -91.15851385 Ry
     estimated scf accuracy    <       0.00000002 Ry

     iteration #  7     ecut=    40.00 Ry     beta= 0.50
     Davidson diagonalization with overlap
     ethr =  7.15E-11,  avg # of iterations =  2.0

     total cpu time spent up to now is       56.7 secs

     total energy              =     -91.15851383 Ry
     Harris-Foulkes estimate   =     -91.15851384 Ry
     estimated scf accuracy    <          6.7E-09 Ry

     iteration #  8     ecut=    40.00 Ry     beta= 0.50
     Davidson diagonalization with overlap
     ethr =  2.08E-11,  avg # of iterations =  2.0

     total cpu time spent up to now is       58.8 secs

     total energy              =     -91.15851384 Ry
     Harris-Foulkes estimate   =     -91.15851384 Ry
     estimated scf accuracy    <          2.0E-10 Ry

     iteration #  9     ecut=    40.00 Ry     beta= 0.50
     Davidson diagonalization with overlap
     ethr =  6.14E-13,  avg # of iterations =  2.0

     total cpu time spent up to now is       60.9 secs

     End of self-consistent calculation

          k = 0.0000 0.0000 0.0000 (  2653 PWs)   bands (ev):

   -14.9621 -13.4917 -13.4915  -9.6826  -8.6880  -2.8535  -2.8534  -2.8051
    -1.8945  -1.0946  -1.0944  -0.5140  -0.5139   1.5173   1.5231   2.3825
     6.4411   7.6286   9.5777   9.5777

          k =-0.0000-0.0004 0.6923 (  2619 PWs)   bands (ev):

   -14.2588 -12.8024 -12.8022  -9.0774  -8.1414  -4.3059  -3.6282  -3.6280
    -2.0201  -2.0200  -1.9791  -0.7389  -0.3082  -0.3080   0.0865   3.2335
     5.9922   8.5503  10.4984  10.4990

          k =-0.0000-0.0009 1.3846 (  2620 PWs)   bands (ev):

   -12.1900 -10.7989 -10.7987  -9.0273  -7.3505  -7.3504  -7.2764  -5.6136
    -4.3631  -2.9200  -1.9007  -1.9005   0.3780   1.7022   1.7024   3.6561
     5.7206   7.3332   7.3335   9.5645

          k = 0.0178 0.6646-0.0001 (  2613 PWs)   bands (ev):

   -14.9369 -13.4719 -13.4673  -9.6673  -8.6754  -3.1597  -2.8493  -2.8453
    -1.8914  -1.4446  -1.3832  -0.5112  -0.5108   1.5192   1.5250   2.1854
     6.1323   9.6862  11.1574  11.5457

          k = 0.0178 0.6641 0.6922 (  2621 PWs)   bands (ev):

   -14.2350 -12.7838 -12.7795  -9.0633  -8.1291  -4.2986  -3.6229  -3.6205
    -2.3198  -2.0169  -2.0144  -0.7355  -0.6415  -0.5826   0.0891   3.0423
     5.7711  10.4586  10.4984  10.5574

          k = 0.0178 0.6637 1.3845 (  2620 PWs)   bands (ev):

   -12.1701 -10.7831 -10.7797  -9.0127  -7.3396  -7.3374  -7.2654  -5.6049
    -4.3558  -2.9148  -1.8987  -1.8971   0.0844   1.4396   1.4802   3.4473
     5.5504   7.0392   7.0669   9.4331

          k = 0.0178 0.6654-1.3848 (  2620 PWs)   bands (ev):

   -12.1701 -10.7830 -10.7796  -9.0128  -7.3397  -7.3375  -7.2653  -5.6049
    -4.3558  -2.9148  -1.8987  -1.8971   0.0832   1.4389   1.4794   3.4483
     5.5498   7.0399   7.0680   9.4337

          k = 0.0178 0.6650-0.6925 (  2621 PWs)   bands (ev):

   -14.2349 -12.7837 -12.7795  -9.0633  -8.1291  -4.2987  -3.6230  -3.6206
    -2.3203  -2.0170  -2.0144  -0.7355  -0.6421  -0.5832   0.0890   3.0419
     5.7711  10.4591  10.4990  10.5632

          k =-0.5022-0.0148 0.0000 (  2632 PWs)   bands (ev):

   -14.5922 -14.5920 -11.6978 -11.6978  -6.1338  -6.1337  -2.3698  -2.3696
    -1.5294  -1.5292   0.1460   0.1460   0.8096   0.8097   0.8604   0.8604
     8.1168   8.1169   8.5133   8.5134

          k =-0.5022-0.0153 0.6923 (  2621 PWs)   bands (ev):

   -13.8918 -13.8916 -11.0371 -11.0371  -5.8415  -5.8414  -3.8079  -3.8077
    -1.9151  -1.9151  -1.5538  -1.5536  -0.1309  -0.1309   1.6163   1.6165
     7.9058   7.9060   9.0373   9.0377

          k =-0.5022-0.0157 1.3847 (  2610 PWs)   bands (ev):

   -11.8348 -11.8346  -9.3352  -9.3351  -8.1751  -8.1750  -5.7760  -5.7760
    -3.8038  -3.8037  -1.8346  -1.8345   0.7297   0.7299   2.9606   2.9608
     6.1907   6.1909   8.7760   8.7763

          k =-0.4844 0.6497-0.0001 (  2623 PWs)   bands (ev):

   -14.5691 -14.5665 -11.6823 -11.6766  -6.1271  -6.1215  -2.7323  -2.6995
    -1.5266  -1.5263   0.1468   0.1489   0.5553   0.6304   0.8108   0.8118
     8.2485   8.3231  10.0038  10.2899

          k =-0.4844 0.6493 0.6922 (  2625 PWs)   bands (ev):

   -13.8700 -13.8675 -11.0225 -11.0171  -5.8347  -5.8305  -3.8016  -3.8007
    -1.9114  -1.9093  -1.9009  -1.8694  -0.1291  -0.1289   1.3269   1.3981
     7.7207   7.7767  10.8595  11.1322

          k =-0.4844 0.6488 1.3845 (  2618 PWs)   bands (ev):

   -11.8165 -11.8145  -9.3216  -9.3187  -8.1624  -8.1621  -5.7681  -5.7649
    -3.7995  -3.7966  -1.8321  -1.8310   0.4366   0.4621   2.7441   2.7737
     5.9439   5.9450   8.5357   8.5755

          k =-0.4844 0.6506-1.3848 (  2618 PWs)   bands (ev):

   -11.8164 -11.8145  -9.3215  -9.3187  -8.1624  -8.1622  -5.7682  -5.7650
    -3.7994  -3.7966  -1.8321  -1.8310   0.4357   0.4610   2.7441   2.7736
     5.9443   5.9452   8.5364   8.5765

          k =-0.4844 0.6502-0.6924 (  2625 PWs)   bands (ev):

   -13.8699 -13.8675 -11.0224 -11.0171  -5.8347  -5.8305  -3.8016  -3.8007
    -1.9115  -1.9093  -1.9015  -1.8701  -0.1290  -0.1290   1.3265   1.3975
     7.7209   7.7769  10.8651  11.1377

     the Fermi energy is     3.8041 ev

!    total energy              =     -91.15851384 Ry
     Harris-Foulkes estimate   =     -91.15851384 Ry
     estimated scf accuracy    <          1.2E-12 Ry

     The total energy is the sum of the following terms:

     one-electron contribution =     -66.97022743 Ry
     hartree contribution      =      46.31047178 Ry
     xc contribution           =     -27.95694338 Ry
     ewald contribution        =     -42.54282477 Ry
     smearing contrib. (-TS)   =       0.00100996 Ry

     convergence has been achieved in   9 iterations

     Forces acting on atoms (cartesian axes, Ry/au):

     atom    1 type  1   force =    -0.00020298   -0.00002592   -0.00000116
     atom    2 type  1   force =     0.00026319    0.00000639    0.00000276
     atom    3 type  1   force =     0.00023625   -0.00000122   -0.00000378
     atom    4 type  1   force =    -0.00027578    0.00001312    0.00000453
     atom    5 type  1   force =     0.00020174    0.00003578    0.00000557
     atom    6 type  1   force =    -0.00022859   -0.00003619   -0.00000245
     atom    7 type  1   force =     0.00026084    0.00005298   -0.00000038
     atom    8 type  1   force =    -0.00025466   -0.00004494   -0.00000509

     Total force =     0.000690     Total SCF correction =     0.000002


     Computing stress (Cartesian axis) and pressure

          total   stress  (Ry/bohr**3)                   (kbar)     P=       -2.05
   0.00002835  -0.00000363   0.00000002            4.17       -0.53        0.00
  -0.00000363  -0.00003941   0.00000003           -0.53       -5.80        0.00
   0.00000002   0.00000003  -0.00003078            0.00        0.00       -4.53


     number of scf cycles    =   6
     number of bfgs steps    =   4

     enthalpy old            =     -91.1584286382 Ry
     enthalpy new            =     -91.1584723185 Ry

     CASE: enthalpy_new < enthalpy_old

     new trust radius        =       0.0151537582 bohr
     new conv_thr            =            1.0E-10 Ry

     new unit-cell volume =    608.86369 a.u.^3 (    90.22429 Ang^3 )
     density =      1.76684 g/cm^3

CELL_PARAMETERS (bohr)
  16.111738412  -0.434105902  -0.000173499
  -0.241398883   8.093686797   0.005182581
   0.000079040   0.000927960   4.672835311

ATOMIC_POSITIONS (crystal)
C             0.3521144767        0.5319721631        0.0706041378
C             0.4355309001        0.5319037389        0.5706085798
C             0.1855311793        0.5320052878        0.0705976482
C             0.6021150385        0.5318107755        0.5706099984
C             0.6855319186        0.5317933484        0.0706115480
C             0.8521143679        0.5318580778        1.0706032505
C             0.9355303148        0.5318677762        0.5706031730
C             0.1021148041        0.5319928323        0.5705956643



     Writing output data file ./pp.save/
     NEW-OLD atomic charge density approx. for the potential
     extrapolated charge   31.90104, renormalised to   32.00000

     total cpu time spent up to now is       61.0 secs

     Self-consistent Calculation

     iteration #  1     ecut=    40.00 Ry     beta= 0.50
     Davidson diagonalization with overlap
     ethr =  1.00E-06,  avg # of iterations =  2.9

     total cpu time spent up to now is       63.6 secs

     total energy              =     -91.15825465 Ry
     Harris-Foulkes estimate   =     -91.33048333 Ry
     estimated scf accuracy    <       0.00015070 Ry

     iteration #  2     ecut=    40.00 Ry     beta= 0.50
     Davidson diagonalization with overlap
     ethr =  4.71E-07,  avg # of iterations =  3.1

     total cpu time spent up to now is       66.6 secs

     total energy              =     -91.15859495 Ry
     Harris-Foulkes estimate   =     -91.15863195 Ry
     estimated scf accuracy    <       0.00011178 Ry

     iteration #  3     ecut=    40.00 Ry     beta= 0.50
     Davidson diagonalization with overlap
     ethr =  3.49E-07,  avg # of iterations =  1.0

     total cpu time spent up to now is       68.2 secs

     total energy              =     -91.15857033 Ry
     Harris-Foulkes estimate   =     -91.15859841 Ry
     estimated scf accuracy    <       0.00004043 Ry

     iteration #  4     ecut=    40.00 Ry     beta= 0.50
     Davidson diagonalization with overlap
     ethr =  1.26E-07,  avg # of iterations =  2.0

     total cpu time spent up to now is       70.5 secs

     total energy              =     -91.15858009 Ry
     Harris-Foulkes estimate   =     -91.15858218 Ry
     estimated scf accuracy    <       0.00000413 Ry

     iteration #  5     ecut=    40.00 Ry     beta= 0.50
     Davidson diagonalization with overlap
     ethr =  1.29E-08,  avg # of iterations =  2.0

     total cpu time spent up to now is       72.6 secs

     total energy              =     -91.15858024 Ry
     Harris-Foulkes estimate   =     -91.15858045 Ry
     estimated scf accuracy    <       0.00000039 Ry

     iteration #  6     ecut=    40.00 Ry     beta= 0.50
     Davidson diagonalization with overlap
     ethr =  1.22E-09,  avg # of iterations =  2.0

     total cpu time spent up to now is       74.9 secs

     total energy              =     -91.15858027 Ry
     Harris-Foulkes estimate   =     -91.15858029 Ry
     estimated scf accuracy    <       0.00000003 Ry

     iteration #  7     ecut=    40.00 Ry     beta= 0.50
     Davidson diagonalization with overlap
     ethr =  9.51E-11,  avg # of iterations =  2.0

     total cpu time spent up to now is       77.2 secs

     total energy              =     -91.15858027 Ry
     Harris-Foulkes estimate   =     -91.15858028 Ry
     estimated scf accuracy    <       0.00000002 Ry

     iteration #  8     ecut=    40.00 Ry     beta= 0.50
     Davidson diagonalization with overlap
     ethr =  4.94E-11,  avg # of iterations =  2.0

     total cpu time spent up to now is       79.7 secs

     total energy              =     -91.15858027 Ry
     Harris-Foulkes estimate   =     -91.15858027 Ry
     estimated scf accuracy    <          4.4E-10 Ry

     iteration #  9     ecut=    40.00 Ry     beta= 0.50
     Davidson diagonalization with overlap
     ethr =  1.37E-12,  avg # of iterations =  2.0

     total cpu time spent up to now is       82.2 secs

     End of self-consistent calculation

          k = 0.0000 0.0000 0.0000 (  2653 PWs)   bands (ev):

   -14.9355 -13.4643 -13.4642  -9.6523  -8.6606  -2.8230  -2.8229  -2.7729
    -1.8723  -1.0622  -1.0621  -0.4910  -0.4909   1.5474   1.5476   2.4149
     6.4735   7.6640   9.6133   9.6133

          k =-0.0000-0.0004 0.6922 (  2619 PWs)   bands (ev):

   -14.2324 -12.7753 -12.7752  -9.0474  -8.1145  -4.2822  -3.6025  -3.6024
    -1.9914  -1.9913  -1.9474  -0.7130  -0.2763  -0.2762   0.1151   3.2656
     6.0225   8.5849  10.5332  10.5338

          k =-0.0000-0.0009 1.3844 (  2620 PWs)   bands (ev):

   -12.1644 -10.7726 -10.7725  -9.0029  -7.3249  -7.3248  -7.2472  -5.5861
    -4.3353  -2.8926  -1.8708  -1.8707   0.4084   1.7324   1.7325   3.6849
     5.7516   7.3633   7.3637   9.5939

          k = 0.0180 0.6666-0.0001 (  2613 PWs)   bands (ev):

   -14.9095 -13.4440 -13.4392  -9.6365  -8.6476  -3.1350  -2.8187  -2.8145
    -1.8690  -1.4198  -1.3569  -0.4880  -0.4877   1.5493   1.5495   2.2133
     6.1589   9.7404  11.2034  11.5881

          k = 0.0180 0.6662 0.6921 (  2621 PWs)   bands (ev):

   -14.2078 -12.7561 -12.7517  -9.0328  -8.1018  -4.2747  -3.5970  -3.5946
    -2.2953  -1.9881  -1.9854  -0.7095  -0.6170  -0.5565   0.1178   3.0699
     5.7967  10.4839  10.5249  10.6100

          k = 0.0180 0.6657 1.3843 (  2620 PWs)   bands (ev):

   -12.1439 -10.7564 -10.7528  -8.9878  -7.3136  -7.3114  -7.2358  -5.5771
    -4.3277  -2.8872  -1.8688  -1.8671   0.1083   1.4636   1.5053   3.4711
     5.5774   7.0630   7.0916   9.4592

          k = 0.0180 0.6675-1.3845 (  2620 PWs)   bands (ev):

   -12.1438 -10.7563 -10.7528  -8.9879  -7.3137  -7.3114  -7.2357  -5.5771
    -4.3277  -2.8872  -1.8688  -1.8672   0.1071   1.4630   1.5045   3.4721
     5.5767   7.0638   7.0927   9.4598

          k = 0.0180 0.6670-0.6923 (  2621 PWs)   bands (ev):

   -14.2078 -12.7561 -12.7517  -9.0328  -8.1018  -4.2747  -3.5972  -3.5946
    -2.2959  -1.9882  -1.9855  -0.7095  -0.6176  -0.5572   0.1178   3.0695
     5.7967  10.4845  10.5255  10.6159

          k =-0.5023-0.0150 0.0000 (  2632 PWs)   bands (ev):

   -14.5654 -14.5652 -11.6697 -11.6695  -6.1043  -6.1041  -2.3376  -2.3374
    -1.5070  -1.5067   0.1766   0.1766   0.8334   0.8335   0.8928   0.8929
     8.1523   8.1524   8.5452   8.5453

          k =-0.5023-0.0154 0.6922 (  2621 PWs)   bands (ev):

   -13.8653 -13.8650 -11.0092 -11.0091  -5.8133  -5.8130  -3.7833  -3.7830
    -1.8898  -1.8897  -1.5221  -1.5219  -0.1015  -0.1014   1.6482   1.6484
     7.9358   7.9360   9.0719   9.0723

          k =-0.5023-0.0159 1.3844 (  2610 PWs)   bands (ev):

   -11.8090 -11.8088  -9.3092  -9.3090  -8.1489  -8.1487  -5.7496  -5.7495
    -3.7747  -3.7745  -1.8057  -1.8055   0.7600   0.7603   2.9902   2.9904
     6.2211   6.2215   8.8057   8.8061

          k =-0.4843 0.6516-0.0001 (  2623 PWs)   bands (ev):

   -14.5415 -14.5388 -11.6536 -11.6477  -6.0973  -6.0915  -2.7079  -2.6742
    -1.5041  -1.5037   0.1774   0.1797   0.5809   0.6579   0.8347   0.8358
     8.2751   8.3518  10.0558  10.3455

          k =-0.4843 0.6512 0.6921 (  2625 PWs)   bands (ev):

   -13.8427 -13.8402 -10.9941 -10.9885  -5.8062  -5.8019  -3.7767  -3.7757
    -1.8859  -1.8837  -1.8766  -1.8444  -0.0996  -0.0994   1.3523   1.4253
     7.7462   7.8038  10.9095  11.1855

          k =-0.4843 0.6507 1.3843 (  2618 PWs)   bands (ev):

   -11.7901 -11.7881  -9.2951  -9.2921  -8.1357  -8.1355  -5.7413  -5.7380
    -3.7703  -3.7672  -1.8030  -1.8019   0.4604   0.4866   2.7684   2.7988
     5.9691   5.9700   8.5603   8.6012

          k =-0.4843 0.6525-1.3845 (  2618 PWs)   bands (ev):

   -11.7900 -11.7880  -9.2951  -9.2921  -8.1358  -8.1355  -5.7414  -5.7381
    -3.7702  -3.7673  -1.8031  -1.8018   0.4594   0.4854   2.7685   2.7987
     5.9694   5.9703   8.5611   8.6023

          k =-0.4843 0.6521-0.6923 (  2625 PWs)   bands (ev):

   -13.8427 -13.8402 -10.9940 -10.9884  -5.8062  -5.8018  -3.7767  -3.7757
    -1.8861  -1.8837  -1.8772  -1.8451  -0.0995  -0.0995   1.3519   1.4247
     7.7465   7.8040  10.9151  11.1911

     the Fermi energy is     3.8318 ev

!    total energy              =     -91.15858027 Ry
     Harris-Foulkes estimate   =     -91.15858027 Ry
     estimated scf accuracy    <          3.1E-12 Ry

     The total energy is the sum of the following terms:

     one-electron contribution =     -66.32696484 Ry
     hartree contribution      =      46.02105282 Ry
     xc contribution           =     -27.95721999 Ry
     ewald contribution        =     -42.89646702 Ry
     smearing contrib. (-TS)   =       0.00101876 Ry

     convergence has been achieved in   9 iterations

     Forces acting on atoms (cartesian axes, Ry/au):

     atom    1 type  1   force =    -0.00032652   -0.00003926    0.00001270
     atom    2 type  1   force =     0.00036253    0.00001901   -0.00001766
     atom    3 type  1   force =     0.00036709    0.00000316   -0.00000261
     atom    4 type  1   force =    -0.00038095    0.00001831    0.00000528
     atom    5 type  1   force =     0.00029583    0.00003521   -0.00001579
     atom    6 type  1   force =    -0.00033004   -0.00007666    0.00000885
     atom    7 type  1   force =     0.00033299    0.00009627   -0.00000743
     atom    8 type  1   force =    -0.00032092   -0.00005604    0.00001666

     Total force =     0.000975     Total SCF correction =     0.000002


     Computing stress (Cartesian axis) and pressure

          total   stress  (Ry/bohr**3)                   (kbar)     P=       -2.06
   0.00003706  -0.00000399  -0.00000004            5.45       -0.59       -0.01
  -0.00000399  -0.00003947   0.00000003           -0.59       -5.81        0.00
  -0.00000004   0.00000003  -0.00003957           -0.01        0.00       -5.82


     number of scf cycles    =   7
     number of bfgs steps    =   5

     enthalpy old            =     -91.1584723185 Ry
     enthalpy new            =     -91.1585388840 Ry

     CASE: enthalpy_new < enthalpy_old

     new trust radius        =       0.0227655482 bohr
     new conv_thr            =            1.0E-10 Ry

     new unit-cell volume =    606.04465 a.u.^3 (    89.80655 Ang^3 )
     density =      1.77506 g/cm^3

CELL_PARAMETERS (bohr)
  16.108175664  -0.437235728  -0.000188706
  -0.243908290   8.056516040   0.005215166
   0.000074850   0.000941634   4.673778045

ATOMIC_POSITIONS (crystal)
C             0.3521227598        0.5319708047        0.0706084579
C             0.4355216527        0.5318968872        0.5706129684
C             0.1855198462        0.5319947697        0.0705795324
C             0.6021265833        0.5318167271        0.5706282696
C             0.6855240020        0.5318081201        0.0706258218
C             0.8521259047        0.5318773605        1.0706030791
C             0.9355186807        0.5318561645        0.5705964067
C             0.1021235706        0.5319831661        0.5705794642



     Writing output data file ./pp.save/
     NEW-OLD atomic charge density approx. for the potential
     extrapolated charge   31.85115, renormalised to   32.00000

     total cpu time spent up to now is       82.4 secs

     Self-consistent Calculation

     iteration #  1     ecut=    40.00 Ry     beta= 0.50
     Davidson diagonalization with overlap
     ethr =  1.00E-06,  avg # of iterations =  4.3

     total cpu time spent up to now is       86.4 secs

     total energy              =     -91.15794505 Ry
     Harris-Foulkes estimate   =     -91.41310040 Ry
     estimated scf accuracy    <       0.00034152 Ry

     iteration #  2     ecut=    40.00 Ry     beta= 0.50
     Davidson diagonalization with overlap
     ethr =  1.07E-06,  avg # of iterations =  3.8

     total cpu time spent up to now is       90.2 secs

     total energy              =     -91.15871367 Ry
     Harris-Foulkes estimate   =     -91.15879720 Ry
     estimated scf accuracy    <       0.00025248 Ry

     iteration #  3     ecut=    40.00 Ry     beta= 0.50
     Davidson diagonalization with overlap
     ethr =  7.89E-07,  avg # of iterations =  1.0

     total cpu time spent up to now is       92.1 secs

     total energy              =     -91.15865805 Ry
     Harris-Foulkes estimate   =     -91.15872141 Ry
     estimated scf accuracy    <       0.00009121 Ry

     iteration #  4     ecut=    40.00 Ry     beta= 0.50
     Davidson diagonalization with overlap
     ethr =  2.85E-07,  avg # of iterations =  2.1

     total cpu time spent up to now is       94.9 secs

     total energy              =     -91.15868014 Ry
     Harris-Foulkes estimate   =     -91.15868510 Ry
     estimated scf accuracy    <       0.00000982 Ry

     iteration #  5     ecut=    40.00 Ry     beta= 0.50
     Davidson diagonalization with overlap
     ethr =  3.07E-08,  avg # of iterations =  2.0

     total cpu time spent up to now is       97.4 secs

     total energy              =     -91.15868035 Ry
     Harris-Foulkes estimate   =     -91.15868098 Ry
     estimated scf accuracy    <       0.00000092 Ry

     iteration #  6     ecut=    40.00 Ry     beta= 0.50
     Davidson diagonalization with overlap
     ethr =  2.88E-09,  avg # of iterations =  2.0

     total cpu time spent up to now is      100.2 secs

     total energy              =     -91.15868059 Ry
     Harris-Foulkes estimate   =     -91.15868059 Ry
     estimated scf accuracy    <       0.00000005 Ry

     iteration #  7     ecut=    40.00 Ry     beta= 0.50
     Davidson diagonalization with overlap
     ethr =  1.55E-10,  avg # of iterations =  1.0

     total cpu time spent up to now is      102.1 secs

     total energy              =     -91.15868056 Ry
     Harris-Foulkes estimate   =     -91.15868059 Ry
     estimated scf accuracy    <       0.00000005 Ry

     iteration #  8     ecut=    40.00 Ry     beta= 0.50
     Davidson diagonalization with overlap
     ethr =  1.52E-10,  avg # of iterations =  2.0

     total cpu time spent up to now is      105.0 secs

     total energy              =     -91.15868057 Ry
     Harris-Foulkes estimate   =     -91.15868057 Ry
     estimated scf accuracy    <          5.2E-10 Ry

     iteration #  9     ecut=    40.00 Ry     beta= 0.50
     Davidson diagonalization with overlap
     ethr =  1.64E-12,  avg # of iterations =  3.3

     total cpu time spent up to now is      108.7 secs

     total energy              =     -91.15868057 Ry
     Harris-Foulkes estimate   =     -91.15868057 Ry
     estimated scf accuracy    <          7.2E-10 Ry

     iteration # 10     ecut=    40.00 Ry     beta= 0.50
     Davidson diagonalization with overlap
     ethr =  1.64E-12,  avg # of iterations =  2.0

     total cpu time spent up to now is      111.8 secs

     End of self-consistent calculation

          k = 0.0000 0.0000 0.0000 (  2653 PWs)   bands (ev):

   -14.8952 -13.4233 -13.4231  -9.6079  -8.6193  -2.7783  -2.7782  -2.7242
    -1.8368  -1.0135  -1.0134  -0.4547  -0.4545   1.5853   1.5921   2.4631
     6.5221   7.7178   9.6668   9.6668

          k =-0.0000-0.0004 0.6921 (  2619 PWs)   bands (ev):

   -14.1924 -12.7345 -12.7344  -9.0032  -8.0738  -4.2451  -3.5633  -3.5631
    -1.9486  -1.9485  -1.8993  -0.6735  -0.2283  -0.2281   0.1578   3.3134
     6.0684   8.6375  10.5856  10.5863

          k =-0.0000-0.0009 1.3841 (  2620 PWs)   bands (ev):

   -12.1252 -10.7327 -10.7326  -8.9651  -7.2857  -7.2856  -7.2040  -5.5448
[...]
     Davidson diagonalization with overlap
     ethr =  7.07E-11,  avg # of iterations =  2.5

     total cpu time spent up to now is     1961.1 secs

     total energy              =     -91.16092218 Ry
     Harris-Foulkes estimate   =     -91.16092218 Ry
     estimated scf accuracy    <          4.3E-09 Ry

     iteration #  9     ecut=    40.00 Ry     beta= 0.50
     Davidson diagonalization with overlap
     ethr =  1.35E-11,  avg # of iterations =  2.0

     total cpu time spent up to now is     1974.7 secs

     total energy              =     -91.16092218 Ry
     Harris-Foulkes estimate   =     -91.16092218 Ry
     estimated scf accuracy    <          4.8E-10 Ry

     iteration # 10     ecut=    40.00 Ry     beta= 0.50
     Davidson diagonalization with overlap
     ethr =  1.50E-12,  avg # of iterations =  2.0

     total cpu time spent up to now is     1989.4 secs

     End of self-consistent calculation

          k = 0.0000 0.0000 0.0000 (  2653 PWs)   bands (ev):

   -13.8306 -12.3418 -12.3403  -8.4923  -7.5131  -1.6640  -1.6623  -1.3479
    -0.7363   0.1948   0.1951   0.6488   0.6523   2.6879   2.7036   3.4245
     7.4061   9.2431  11.5678  11.5706

          k =-0.0002-0.0016 0.6921 (  2619 PWs)   bands (ev):

   -13.1259 -11.6520 -11.6504  -7.8880  -6.9696  -3.1515  -2.4663  -2.4572
    -0.8418  -0.8324  -0.5323   0.4395   0.9741   0.9807   1.2588   4.2789
     7.0767  10.1402  11.7180  11.7229

          k =-0.0004-0.0032 1.3843 (  2620 PWs)   bands (ev):

   -11.0532  -9.6474  -9.6456  -7.8835  -6.1957  -6.1909  -6.0893  -4.4408
    -3.1805  -1.7488  -0.7189  -0.7147   1.7868   2.9672   2.9810   4.9621
     6.7769   8.5616   8.5642  10.6418

          k = 0.0922 0.7474-0.0009 (  2613 PWs)   bands (ev):

   -13.7488 -12.3185 -12.2583  -8.4921  -7.5105  -2.1338  -1.6888  -1.6677
    -0.7239  -0.5758  -0.0360   0.6541   0.6629   2.6852   2.7029   3.4004
     7.4148  12.2118  12.2955  12.9892

          k = 0.0920 0.7458 0.6912 (  2621 PWs)   bands (ev):

   -13.0484 -11.6301 -11.5725  -7.8879  -6.9642  -3.1257  -2.4673  -2.4365
    -1.2887  -0.8460  -0.8401   0.2389   0.4394   0.7555   1.2566   4.2524
     6.9873  11.5320  11.7845  13.0011

          k = 0.0918 0.7442 1.3834 (  2620 PWs)   bands (ev):

   -10.9872  -9.6278  -9.5794  -7.8358  -6.1818  -6.1446  -6.0884  -4.4378
    -3.1801  -1.7493  -0.7270  -0.7242   1.1295   2.3875   2.7443   4.5214
     6.7730   8.0577   8.3081  10.6378

          k = 0.0926 0.7506-1.3852 (  2620 PWs)   bands (ev):

   -10.9862  -9.6254  -9.5807  -7.8368  -6.1789  -6.1488  -6.0886  -4.4377
    -3.1801  -1.7494  -0.7308  -0.7206   1.1201   2.3812   2.7418   4.5303
     6.7739   8.0506   8.3268  10.6379

          k = 0.0924 0.7490-0.6930 (  2621 PWs)   bands (ev):

   -13.0478 -11.6292 -11.5727  -7.8878  -6.9644  -3.1264  -2.4596  -2.4452
    -1.2939  -0.8553  -0.8312   0.2359   0.4395   0.7513   1.2564   4.2520
     6.9913  11.5303  11.7965  13.0303

          k =-0.5152-0.0773 0.0001 (  2632 PWs)   bands (ev):

   -13.4560 -13.4549 -10.5296 -10.5287  -4.9445  -4.9435  -0.9591  -0.9584
    -0.3699  -0.3689   1.3277   1.3281   1.9810   1.9812   1.9983   1.9990
     9.4551   9.4589   9.8375   9.8395

          k =-0.5154-0.0789 0.6922 (  2621 PWs)   bands (ev):

   -12.7544 -12.7533  -9.8692  -9.8682  -4.6627  -4.6575  -2.6486  -2.6439
    -0.7495  -0.7421  -0.1536  -0.1497   1.0463   1.0544   2.7565   2.7640
     8.9801   8.9855  10.7255  10.7334

          k =-0.5156-0.0805 1.3844 (  2610 PWs)   bands (ev):

   -10.6942 -10.6930  -8.1787  -8.1738  -7.0219  -7.0132  -4.6086  -4.6047
    -2.6219  -2.6180  -0.6565  -0.6527   2.0927   2.1006   4.1788   4.1944
     7.3868   7.3928   9.9153   9.9202

          k =-0.4230 0.6701-0.0008 (  2623 PWs)   bands (ev):

   -13.3994 -13.3639 -10.5376 -10.4699  -4.9774  -4.9363  -1.8202  -1.5152
    -0.3608  -0.3562   1.3145   1.3212   1.4740   1.9796   1.9875   2.0793
     9.3619   9.7597  11.7918  13.1779

          k =-0.4232 0.6685 0.6913 (  2625 PWs)   bands (ev):

   -12.7009 -12.6670  -9.8769  -9.8121  -4.6846  -4.6447  -2.6327  -2.6240
    -0.9802  -0.7529  -0.7253  -0.6855   1.0390   1.0479   2.2531   2.8307
     8.7824   9.1154  12.5742  13.8606

          k =-0.4234 0.6669 1.3835 (  2618 PWs)   bands (ev):

   -10.6485 -10.6196  -8.1663  -8.1261  -6.9900  -6.9780  -4.6129  -4.5729
    -2.6388  -2.6177  -0.6686  -0.6533   1.3936   1.6335   3.7676   3.9821
     7.0829   7.1131   9.5612   9.8993

          k =-0.4227 0.6733-1.3851 (  2618 PWs)   bands (ev):

   -10.6468 -10.6194  -8.1605  -8.1322  -6.9866  -6.9825  -4.6107  -4.5758
    -2.6422  -2.6145  -0.6652  -0.6565   1.3853   1.6254   3.7650   3.9897
     7.1004   7.1048   9.5556   9.9104

          k =-0.4229 0.6717-0.6929 (  2625 PWs)   bands (ev):

   -12.7000 -12.6667  -9.8758  -9.8130  -4.6797  -4.6501  -2.6382  -2.6196
    -0.9846  -0.7468  -0.7321  -0.6909   1.0401   1.0469   2.2513   2.8293
     8.7822   9.1252  12.6021  13.8660

     the Fermi energy is     5.1965 ev

!    total energy              =     -91.16092218 Ry
     Harris-Foulkes estimate   =     -91.16092218 Ry
     estimated scf accuracy    <          3.1E-11 Ry

     The total energy is the sum of the following terms:

     one-electron contribution =     -42.65806185 Ry
     hartree contribution      =      35.53709013 Ry
     xc contribution           =     -27.96685571 Ry
     ewald contribution        =     -56.07343153 Ry
     smearing contrib. (-TS)   =       0.00033677 Ry

     convergence has been achieved in  10 iterations

     Forces acting on atoms (cartesian axes, Ry/au):

     atom    1 type  1   force =     0.00006443    0.00081275   -0.00073745
     atom    2 type  1   force =    -0.00025905   -0.00087548    0.00138055
     atom    3 type  1   force =     0.00046978    0.00072561   -0.00018726
     atom    4 type  1   force =    -0.00034499   -0.00087746    0.00028511
     atom    5 type  1   force =     0.00081053    0.00097715    0.00236698
     atom    6 type  1   force =    -0.00001645    0.00124062   -0.00141371
     atom    7 type  1   force =    -0.00005271   -0.00129209    0.00083316
     atom    8 type  1   force =    -0.00067155   -0.00071111   -0.00252739

     Total force =     0.005115     Total SCF correction =     0.000015


     Computing stress (Cartesian axis) and pressure

          total   stress  (Ry/bohr**3)                   (kbar)     P=        1.25
   0.00005773  -0.00001112   0.00000630            8.49       -1.64        0.93
  -0.00001112   0.00001550  -0.00000094           -1.64        2.28       -0.14
   0.00000630  -0.00000094  -0.00004771            0.93       -0.14       -7.02


     number of scf cycles    =  31
     number of bfgs steps    =  29

     enthalpy old            =     -91.1606834682 Ry
     enthalpy new            =     -91.1608855371 Ry

     CASE: enthalpy_new < enthalpy_old

     new trust radius        =       0.0813057945 bohr
     new conv_thr            =       0.0000000002 Ry

     new unit-cell volume =    544.62469 a.u.^3 (    80.70505 Ang^3 )
     density =      1.97524 g/cm^3

CELL_PARAMETERS (bohr)
  15.982111814  -2.172613202   0.001008149
  -1.207438227   7.461732601   0.017762225
   0.000343866   0.005537333   4.669654908

ATOMIC_POSITIONS (crystal)
C             0.3520983284        0.5321722184        0.0705621759
C             0.4356241619        0.5321548650        0.5703221582
C             0.1856742763        0.5324742747        0.0712476740
C             0.6019939287        0.5314166550        0.5699326681
C             0.6854488203        0.5310268108        0.0699405314
C             0.8519670141        0.5313485028        1.0706682014
C             0.9356101954        0.5320172942        0.5708565640
C             0.1021662750        0.5325933792        0.5713040271



     Writing output data file ./pp.save/
     NEW-OLD atomic charge density approx. for the potential
     extrapolated charge   32.33195, renormalised to   32.00000

     total cpu time spent up to now is     1989.9 secs

     Self-consistent Calculation

     iteration #  1     ecut=    40.00 Ry     beta= 0.50
     Davidson diagonalization with overlap
     ethr =  1.00E-06,  avg # of iterations =  6.2

     total cpu time spent up to now is     2022.7 secs

     total energy              =     -91.15804732 Ry
     Harris-Foulkes estimate   =     -90.78433817 Ry
     estimated scf accuracy    <       0.00143104 Ry

     iteration #  2     ecut=    40.00 Ry     beta= 0.50
     Davidson diagonalization with overlap
     ethr =  4.47E-06,  avg # of iterations =  3.6

     total cpu time spent up to now is     2043.4 secs

     total energy              =     -91.16121860 Ry
     Harris-Foulkes estimate   =     -91.16156332 Ry
     estimated scf accuracy    <       0.00109283 Ry

     iteration #  3     ecut=    40.00 Ry     beta= 0.50
     Davidson diagonalization with overlap
     ethr =  3.42E-06,  avg # of iterations =  1.0

     total cpu time spent up to now is     2053.6 secs

     total energy              =     -91.16098632 Ry
     Harris-Foulkes estimate   =     -91.16125122 Ry
     estimated scf accuracy    <       0.00040544 Ry

     iteration #  4     ecut=    40.00 Ry     beta= 0.50
     Davidson diagonalization with overlap
     ethr =  1.27E-06,  avg # of iterations =  2.2

     total cpu time spent up to now is     2069.0 secs

     total energy              =     -91.16108290 Ry
     Harris-Foulkes estimate   =     -91.16109704 Ry
     estimated scf accuracy    <       0.00003613 Ry

     iteration #  5     ecut=    40.00 Ry     beta= 0.50
     Davidson diagonalization with overlap
     ethr =  1.13E-07,  avg # of iterations =  1.0

     total cpu time spent up to now is     2079.3 secs

     total energy              =     -91.16108128 Ry
     Harris-Foulkes estimate   =     -91.16108467 Ry
     estimated scf accuracy    <       0.00000916 Ry

     iteration #  6     ecut=    40.00 Ry     beta= 0.50
     Davidson diagonalization with overlap
     ethr =  2.86E-08,  avg # of iterations =  1.6

     total cpu time spent up to now is     2091.4 secs

     total energy              =     -91.16108002 Ry
     Harris-Foulkes estimate   =     -91.16108170 Ry
     estimated scf accuracy    <       0.00000249 Ry

     iteration #  7     ecut=    40.00 Ry     beta= 0.50
     Davidson diagonalization with overlap
     ethr =  7.77E-09,  avg # of iterations =  2.0

     total cpu time spent up to now is     2105.9 secs

     total energy              =     -91.16108058 Ry
     Harris-Foulkes estimate   =     -91.16108077 Ry
     estimated scf accuracy    <       0.00000031 Ry

     iteration #  8     ecut=    40.00 Ry     beta= 0.50
     Davidson diagonalization with overlap
     ethr =  9.60E-10,  avg # of iterations =  2.0

     total cpu time spent up to now is     2120.7 secs

     total energy              =     -91.16108064 Ry
     Harris-Foulkes estimate   =     -91.16108064 Ry
     estimated scf accuracy    <          1.3E-09 Ry

     iteration #  9     ecut=    40.00 Ry     beta= 0.50
     Davidson diagonalization with overlap
     ethr =  4.13E-12,  avg # of iterations =  3.0

     total cpu time spent up to now is     2138.8 secs

     total energy              =     -91.16108064 Ry
     Harris-Foulkes estimate   =     -91.16108064 Ry
     estimated scf accuracy    <          1.8E-09 Ry

     iteration # 10     ecut=    40.00 Ry     beta= 0.50
     Davidson diagonalization with overlap
     ethr =  4.13E-12,  avg # of iterations =  2.0

     total cpu time spent up to now is     2153.7 secs

     End of self-consistent calculation

          k = 0.0000 0.0000 0.0000 (  2653 PWs)   bands (ev):

   -13.9264 -12.4397 -12.4387  -8.6068  -7.6108  -1.7812  -1.7802  -1.4800
    -0.8153   0.0419   0.0424   0.5657   0.5682   2.5760   2.6064   3.2593
     7.2313   9.0945  11.4965  11.4981

          k =-0.0003-0.0017 0.6927 (  2619 PWs)   bands (ev):

   -13.2206 -11.7490 -11.7479  -8.0017  -7.0652  -3.2364  -2.5567  -2.5546
    -0.9482  -0.9463  -0.6623   0.3414   0.8252   0.8305   1.1507   4.1162
     6.9264   9.9958  11.5915  11.5961

          k =-0.0005-0.0034 1.3853 (  2620 PWs)   bands (ev):

   -11.1449  -9.7411  -9.7399  -7.9699  -6.2866  -6.2849  -6.2004  -4.5405
    -3.2860  -1.8491  -0.8324  -0.8317   1.6623   2.8316   2.8408   4.8405
     6.6223   8.4170   8.4273  10.5012

          k = 0.1004 0.7387-0.0009 (  2613 PWs)   bands (ev):

   -13.8516 -12.4247 -12.3654  -8.6149  -7.6153  -2.2196  -1.8051  -1.7905
    -0.8042  -0.6629  -0.1109   0.5695   0.5777   2.5721   2.6060   3.3134
     7.3375  11.9766  12.0056  12.8923

          k = 0.1001 0.7370 0.6918 (  2621 PWs)   bands (ev):

   -13.1499 -11.7348 -11.6785  -8.0092  -7.0666  -3.2132  -2.5595  -2.5386
    -1.3735  -0.9597  -0.9496   0.1521   0.3389   0.6815   1.1475   4.1657
     6.9066  11.4519  11.6800  12.7747

          k = 0.0999 0.7353 1.3845 (  2620 PWs)   bands (ev):

   -11.0848  -9.7279  -9.6815  -7.9271  -6.2772  -6.2443  -6.2059  -4.5421
    -3.2901  -1.8528  -0.8439  -0.8397   1.0472   2.3024   2.6710   4.4413
     6.6850   7.9760   8.2307  10.5505

          k = 0.1010 0.7421-1.3862 (  2620 PWs)   bands (ev):

   -11.0838  -9.7266  -9.6816  -7.9282  -6.2777  -6.2449  -6.2060  -4.5422
    -3.2900  -1.8527  -0.8442  -0.8395   1.0377   2.3013   2.6635   4.4509
     6.6860   7.9748   8.2430  10.5493

          k = 0.1007 0.7404-0.6936 (  2621 PWs)   bands (ev):

   -13.1493 -11.7342 -11.6785  -8.0092  -7.0667  -3.2139  -2.5591  -2.5398
    -1.3788  -0.9611  -0.9486   0.1510   0.3390   0.6759   1.1475   4.1664
     6.9101  11.4536  11.6878  12.8047

          k =-0.5173-0.0837 0.0001 (  2632 PWs)   bands (ev):

   -13.5523 -13.5511 -10.6315 -10.6313  -5.0555  -5.0549  -1.0977  -1.0967
    -0.4504  -0.4487   1.2086   1.2095   1.8330   1.8350   1.8915   1.8928
     9.2956   9.2987   9.7092   9.7121

          k =-0.5176-0.0854 0.6928 (  2621 PWs)   bands (ev):

   -12.8498 -12.8486  -9.9703  -9.9699  -4.7657  -4.7649  -2.7368  -2.7353
    -0.8403  -0.8388  -0.2894  -0.2860   0.9358   0.9370   2.5970   2.6027
     8.8426   8.8434  10.6010  10.6104

          k =-0.5179-0.0871 1.3855 (  2610 PWs)   bands (ev):

   -10.7865 -10.7853  -8.2694  -8.2691  -7.1141  -7.1123  -4.7045  -4.7033
    -2.7304  -2.7296  -0.7653  -0.7648   1.9645   1.9704   4.0457   4.0545
     7.2459   7.2507   9.7702   9.7797

          k =-0.4169 0.6550-0.0007 (  2623 PWs)   bands (ev):

   -13.5032 -13.4676 -10.6472 -10.5828  -5.0898  -5.0562  -1.9101  -1.5935
    -0.4423  -0.4376   1.1975   1.2010   1.3940   1.8896   1.8972   1.9956
     9.3077   9.6357  11.4991  13.1092

          k =-0.4172 0.6533 0.6919 (  2625 PWs)   bands (ev):

   -12.8033 -12.7695  -9.9849  -9.9239  -4.7893  -4.7596  -2.7268  -2.7148
    -1.0694  -0.8458  -0.8256  -0.7629   0.9276   0.9308   2.1729   2.7483
     8.7124   9.0082  12.2990  13.7366

          k =-0.4175 0.6516 1.3846 (  2618 PWs)   bands (ev):

   -10.7468 -10.7183  -8.2633  -8.2295  -7.0872  -7.0818  -4.7130  -4.6777
    -2.7512  -2.7314  -0.7779  -0.7677   1.3068   1.5582   3.6880   3.9022
     7.0000   7.0292   9.4793   9.8162

          k =-0.4164 0.6584-1.3861 (  2618 PWs)   bands (ev):

   -10.7456 -10.7178  -8.2622  -8.2309  -7.0870  -7.0832  -4.7134  -4.6778
    -2.7515  -2.7314  -0.7777  -0.7677   1.3009   1.5478   3.6929   3.9030
     7.0098   7.0295   9.4757   9.8232

          k =-0.4166 0.6567-0.6934 (  2625 PWs)   bands (ev):

   -12.8026 -12.7691  -9.9844  -9.9241  -4.7889  -4.7607  -2.7281  -2.7146
    -1.0728  -0.8456  -0.8262  -0.7690   0.9284   0.9300   2.1739   2.7450
     8.7164   9.0139  12.3264  13.7481

     the Fermi energy is     5.0632 ev

!    total energy              =     -91.16108064 Ry
     Harris-Foulkes estimate   =     -91.16108064 Ry
     estimated scf accuracy    <          2.3E-11 Ry

     The total energy is the sum of the following terms:

     one-electron contribution =     -44.47409273 Ry
     hartree contribution      =      36.32170089 Ry
     xc contribution           =     -27.96271681 Ry
     ewald contribution        =     -55.04638844 Ry
     smearing contrib. (-TS)   =       0.00041646 Ry

     convergence has been achieved in  10 iterations

     Forces acting on atoms (cartesian axes, Ry/au):

     atom    1 type  1   force =     0.00010963    0.00027887   -0.00033465
     atom    2 type  1   force =    -0.00008500   -0.00042380    0.00063360
     atom    3 type  1   force =    -0.00000138    0.00028721   -0.00045157
     atom    4 type  1   force =    -0.00024717   -0.00022589    0.00043139
     atom    5 type  1   force =     0.00037469    0.00051010    0.00072437
     atom    6 type  1   force =     0.00033393    0.00032348    0.00007345
     atom    7 type  1   force =    -0.00025974   -0.00032559   -0.00036024
     atom    8 type  1   force =    -0.00022495   -0.00042437   -0.00071636

     Total force =     0.001889     Total SCF correction =     0.000003


     Computing stress (Cartesian axis) and pressure

          total   stress  (Ry/bohr**3)                   (kbar)     P=        0.10
   0.00000473  -0.00000179   0.00000068            0.70       -0.26        0.10
  -0.00000179   0.00000440  -0.00000030           -0.26        0.65       -0.04
   0.00000068  -0.00000030  -0.00000701            0.10       -0.04       -1.03


     number of scf cycles    =  32
     number of bfgs steps    =  30

     enthalpy old            =     -91.1608855371 Ry
     enthalpy new            =     -91.1610436153 Ry

     CASE: enthalpy_new < enthalpy_old

     new trust radius        =       0.0316833814 bohr
     new conv_thr            =            1.0E-10 Ry

     new unit-cell volume =    547.29049 a.u.^3 (    81.10008 Ang^3 )
     density =      1.96562 g/cm^3

CELL_PARAMETERS (bohr)
  15.978006191  -2.236719867   0.001259821
  -1.240680898   7.510273866   0.018090507
   0.000399300   0.005449696   4.668765836

ATOMIC_POSITIONS (crystal)
C             0.3521154219        0.5322870655        0.0705114235
C             0.4356165640        0.5320438080        0.5705680609
C             0.1856946821        0.5326169029        0.0708813377
C             0.6019550940        0.5312849364        0.5703008204
C             0.6854801365        0.5311220258        0.0703513182
C             0.8519907588        0.5314457619        1.0706750051
C             0.9355848664        0.5318907245        0.5706665683
C             0.1021454763        0.5325127750        0.5708794659



     Writing output data file ./pp.save/
     NEW-OLD atomic charge density approx. for the potential
     extrapolated charge   32.15587, renormalised to   32.00000

     total cpu time spent up to now is     2154.2 secs

     Self-consistent Calculation

     iteration #  1     ecut=    40.00 Ry     beta= 0.50
     Davidson diagonalization with overlap
     ethr =  1.00E-06,  avg # of iterations =  4.2

     total cpu time spent up to now is     2179.0 secs

     total energy              =     -91.16042851 Ry
     Harris-Foulkes estimate   =     -90.98074196 Ry
     estimated scf accuracy    <       0.00030934 Ry

     iteration #  2     ecut=    40.00 Ry     beta= 0.50
     Davidson diagonalization with overlap
     ethr =  9.67E-07,  avg # of iterations =  3.5

     total cpu time spent up to now is     2199.9 secs

     total energy              =     -91.16112764 Ry
     Harris-Foulkes estimate   =     -91.16120357 Ry
     estimated scf accuracy    <       0.00023791 Ry

     iteration #  3     ecut=    40.00 Ry     beta= 0.50
     Davidson diagonalization with overlap
     ethr =  7.43E-07,  avg # of iterations =  1.0

     total cpu time spent up to now is     2210.5 secs

     total energy              =     -91.16107653 Ry
     Harris-Foulkes estimate   =     -91.16113483 Ry
     estimated scf accuracy    <       0.00008809 Ry

     iteration #  4     ecut=    40.00 Ry     beta= 0.50
     Davidson diagonalization with overlap
