
     Program PWSCF v.6.5 starts on  8Jul2022 at  4:49:58 

     This program is part of the open-source Quantum ESPRESSO suite
     for quantum simulation of materials; please cite
         "P. Giannozzi et al., J. Phys.:Condens. Matter 21 395502 (2009);
         "P. Giannozzi et al., J. Phys.:Condens. Matter 29 465901 (2017);
          URL http://www.quantum-espresso.org", 
     in publications or presentations arising from this work. More details at
     http://www.quantum-espresso.org/quote

     Parallel version (MPI), running on    96 processors

     MPI processes distributed on     2 nodes
     R & G space division:  proc/nbgrp/npool/nimage =      96
     Waiting for input...
     Reading input from standard input
     Message from routine read_cards :
     DEPRECATED: no units specified in CELL_PARAMETERS card

     Current dimensions of program PWSCF are:
     Max number of different atomic species (ntypx) = 10
     Max number of k-points (npk) =  40000
     Max angular momentum in pseudopotentials (lmaxx) =  3

     Subspace diagonalization in iterative solution of the eigenvalue problem:
     one sub-group per band group will be used
     scalapack distributed-memory algorithm (size of sub-group:  9*  9 procs)

 
     Parallelization info
     --------------------
     sticks:   dense  smooth     PW     G-vecs:    dense   smooth      PW
     Min          14      14      4                  172      172      28
     Max          15      15      5                  174      174      31
     Sum        1345    1345    415                16613    16613    2795
 


     bravais-lattice index     =            0
     lattice parameter (alat)  =      14.1193  a.u.
     unit-cell volume          =     485.2920 (a.u.)^3
     number of atoms/cell      =            8
     number of atomic types    =            1
     number of electrons       =        32.00
     number of Kohn-Sham states=           20
     kinetic-energy cutoff     =      40.0000  Ry
     charge density cutoff     =     160.0000  Ry
     convergence threshold     =      1.0E-08
     mixing beta               =       0.5000
     number of iterations used =            8  plain     mixing
     Exchange-correlation=  SLA  PW   PBE  PBE
                           (   1   4   3   4   0   0   0)
     nstep                     =          250


     celldm(1)=  14.119310  celldm(2)=   0.000000  celldm(3)=   0.000000
     celldm(4)=   0.000000  celldm(5)=   0.000000  celldm(6)=   0.000000

     crystal axes: (cart. coord. in units of alat)
               a(1) = (   0.990665  -0.106755   0.084778 )  
               a(2) = (  -0.054259   0.538688   0.004781 )  
               a(3) = (   0.029399   0.003130   0.329244 )  

     reciprocal axes: (cart. coord. in units 2 pi/alat)
               b(1) = (  1.028622  0.104431 -0.092842 )  
               b(2) = (  0.205404  1.877373 -0.036191 )  
               b(3) = ( -0.267844 -0.054150  3.061692 )  


     PseudoPot. # 1 for C  read from file:
     ./C.pbe-van_bm.upf
     MD5 check sum: 1a69bf6b8db32088f5b2163dbdb77a27
     Pseudo is Ultrasoft, Zval =  4.0
     Generated by new atomic code, or converted to UPF format
     Using radial grid of  721 points,  4 beta functions with: 
                l(1) =   0
                l(2) =   0
                l(3) =   1
                l(4) =   1
     Q(r) pseudized with  8 coefficients,  rinner =    0.800   0.800   0.800


     atomic species   valence    mass     pseudopotential
        C              4.00    12.00000     C ( 1.00)

     No symmetry found



   Cartesian axes

     site n.     atom                  positions (alat units)
         1           C   tau(   1) = (   0.7375350   0.0438510   0.3718045  )
         2           C   tau(   2) = (   0.7534333   0.5319187   0.2046597  )
         3           C   tau(   3) = (   0.1698434   0.3822631   0.2524049  )
         4           C   tau(   4) = (   0.5735727   0.1347579   0.3854752  )
         5           C   tau(   5) = (   0.1210610  -0.1002694   0.0908285  )
         6           C   tau(   6) = (   0.4740225   0.1822248   0.2281498  )
         7           C   tau(   7) = (   0.3182950   0.2813800   0.2406993  )
         8           C   tau(   8) = (   0.9091576   0.4327472   0.1920992  )

     number of k points=    16  Marzari-Vanderbilt smearing, width (Ry)=  0.0200
                       cart. coord. in units 2pi/alat
        k(    1) = (   0.0000000   0.0000000   0.0000000), wk =   0.0666667
        k(    2) = (  -0.0535688  -0.0108300   0.6123383), wk =   0.1333333
        k(    3) = (  -0.1071375  -0.0216600   1.2246766), wk =   0.1333333
        k(    4) = (   0.0684679   0.6257911  -0.0120638), wk =   0.1333333
        k(    5) = (   0.0148992   0.6149611   0.6002745), wk =   0.1333333
        k(    6) = (  -0.0386696   0.6041311   1.2126128), wk =   0.1333333
        k(    7) = (   0.1756055   0.6474511  -1.2367404), wk =   0.1333333
        k(    8) = (   0.1220367   0.6366211  -0.6244021), wk =   0.1333333
        k(    9) = (  -0.5143111  -0.0522157   0.0464212), wk =   0.0666667
        k(   10) = (  -0.5678798  -0.0630457   0.6587596), wk =   0.1333333
        k(   11) = (  -0.6214486  -0.0738757   1.2710979), wk =   0.1333333
        k(   12) = (  -0.4458431   0.5735754   0.0343574), wk =   0.1333333
        k(   13) = (  -0.4994119   0.5627454   0.6466958), wk =   0.1333333
        k(   14) = (  -0.5529806   0.5519154   1.2590341), wk =   0.1333333
        k(   15) = (  -0.3387056   0.5952354  -1.1903192), wk =   0.1333333
        k(   16) = (  -0.3922744   0.5844054  -0.5779809), wk =   0.1333333

     Dense  grid:    16613 G-vectors     FFT dimensions: (  60,  32,  20)

     Estimated max dynamical RAM per process >       1.49 MB

     Estimated total dynamical RAM >     143.16 MB

     Initial potential from superposition of free atoms

     starting charge   31.99968, renormalised to   32.00000
     Starting wfcs are   32 randomized atomic wfcs

     total cpu time spent up to now is        0.6 secs

     Self-consistent Calculation

     iteration #  1     ecut=    40.00 Ry     beta= 0.50
     Davidson diagonalization with overlap
     ethr =  1.00E-02,  avg # of iterations =  2.0

     total cpu time spent up to now is        1.4 secs

     total energy              =     -90.72197460 Ry
     Harris-Foulkes estimate   =     -91.05135464 Ry
     estimated scf accuracy    <       0.67915856 Ry

     iteration #  2     ecut=    40.00 Ry     beta= 0.50
     Davidson diagonalization with overlap
     ethr =  2.12E-03,  avg # of iterations =  2.0

     total cpu time spent up to now is        2.1 secs

     total energy              =     -90.75171559 Ry
     Harris-Foulkes estimate   =     -90.77978245 Ry
     estimated scf accuracy    <       0.06128208 Ry

     iteration #  3     ecut=    40.00 Ry     beta= 0.50
     Davidson diagonalization with overlap
     ethr =  1.92E-04,  avg # of iterations =  3.7

     total cpu time spent up to now is        3.3 secs

     total energy              =     -90.76099885 Ry
     Harris-Foulkes estimate   =     -90.76292013 Ry
     estimated scf accuracy    <       0.00576471 Ry

     iteration #  4     ecut=    40.00 Ry     beta= 0.50
     Davidson diagonalization with overlap
     ethr =  1.80E-05,  avg # of iterations =  4.6

     total cpu time spent up to now is        4.5 secs

     total energy              =     -90.76161182 Ry
     Harris-Foulkes estimate   =     -90.76263739 Ry
     estimated scf accuracy    <       0.00299033 Ry

     iteration #  5     ecut=    40.00 Ry     beta= 0.50
     Davidson diagonalization with overlap
     ethr =  9.34E-06,  avg # of iterations =  3.6

     total cpu time spent up to now is        5.5 secs

     total energy              =     -90.76209600 Ry
     Harris-Foulkes estimate   =     -90.76254465 Ry
     estimated scf accuracy    <       0.00168289 Ry

     iteration #  6     ecut=    40.00 Ry     beta= 0.50
     Davidson diagonalization with overlap
     ethr =  5.26E-06,  avg # of iterations =  2.5

     total cpu time spent up to now is        6.2 secs

     total energy              =     -90.76230280 Ry
     Harris-Foulkes estimate   =     -90.76231590 Ry
     estimated scf accuracy    <       0.00004075 Ry

     iteration #  7     ecut=    40.00 Ry     beta= 0.50
     Davidson diagonalization with overlap
     ethr =  1.27E-07,  avg # of iterations =  3.4

     total cpu time spent up to now is        7.2 secs

     total energy              =     -90.76231408 Ry
     Harris-Foulkes estimate   =     -90.76231467 Ry
     estimated scf accuracy    <       0.00000273 Ry

     iteration #  8     ecut=    40.00 Ry     beta= 0.50
     Davidson diagonalization with overlap
     ethr =  8.53E-09,  avg # of iterations =  2.4

     total cpu time spent up to now is        8.1 secs

     total energy              =     -90.76231437 Ry
     Harris-Foulkes estimate   =     -90.76231541 Ry
     estimated scf accuracy    <       0.00000416 Ry

     iteration #  9     ecut=    40.00 Ry     beta= 0.50
     Davidson diagonalization with overlap
     ethr =  8.53E-09,  avg # of iterations =  1.9

     total cpu time spent up to now is        8.8 secs

     total energy              =     -90.76231492 Ry
     Harris-Foulkes estimate   =     -90.76231497 Ry
     estimated scf accuracy    <       0.00000021 Ry

     iteration # 10     ecut=    40.00 Ry     beta= 0.50
     Davidson diagonalization with overlap
     ethr =  6.56E-10,  avg # of iterations =  2.1

     total cpu time spent up to now is        9.6 secs

     End of self-consistent calculation

          k = 0.0000 0.0000 0.0000 (  2059 PWs)   bands (ev):

   -12.5641 -11.3556 -10.6618  -7.2425  -6.8580  -2.4840  -1.4953   0.3561
     0.9222   0.9655   1.1985   1.7797   1.8971   2.7904   4.6524   5.7147
     8.8282  11.1367  11.7024  12.9763

          k =-0.0536-0.0108 0.6123 (  2084 PWs)   bands (ev):

   -11.8486 -10.7463  -9.9144  -6.9676  -6.1137  -2.5303  -1.6544  -1.2559
    -0.5767   0.5032   1.1280   1.1681   1.6548   1.9384   4.9460   6.3791
     6.5454   8.5214  11.8111  12.6829

          k =-0.1071-0.0217 1.2247 (  2083 PWs)   bands (ev):

    -9.7811  -8.9620  -7.9929  -6.7546  -6.0589  -4.3866  -3.9738  -3.2001
    -2.1423  -1.0745  -0.6268   3.2341   3.3435   3.7616   4.6199   5.5048
     5.5444   6.8631   9.2905  10.9383

          k = 0.0685 0.6258-0.0121 (  2095 PWs)   bands (ev):

   -12.2976 -11.5058 -10.3551  -8.4264  -5.7516  -3.7216  -0.9205  -0.3787
    -0.2649   0.9289   1.4504   2.0621   2.6223   3.0082   4.8461   7.7447
     9.0578  10.6641  11.6317  13.7362

          k = 0.0149 0.6150 0.6003 (  2063 PWs)   bands (ev):

   -11.5777 -10.9206  -9.5274  -8.0418  -5.0331  -3.7464  -1.5336  -0.4326
    -0.3449  -0.2950   0.3083   0.7697   0.8213   3.6193   4.9137   6.7109
     8.1099   8.6255  10.5060  13.9887

          k =-0.0387 0.6041 1.2126 (  2069 PWs)   bands (ev):

    -9.5277  -9.0865  -7.5350  -7.2740  -5.8965  -4.6088  -4.1974  -2.6589
    -2.3996  -1.0939  -0.7886   1.7817   2.9348   4.2464   4.4515   5.6723
     5.7548   7.5586   9.5004  11.8006

          k = 0.1756 0.6475-1.2367 (  2059 PWs)   bands (ev):

    -9.6075  -8.7385  -8.2342  -6.6195  -6.1882  -4.3417  -4.0478  -3.3851
    -2.2052  -1.0334  -0.6265   2.0027   2.5336   4.2259   4.6001   5.3142
     6.3718   7.1886   9.7910  11.4129

          k = 0.1220 0.6366-0.6244 (  2069 PWs)   bands (ev):

   -11.6150 -10.7367  -9.8648  -7.5938  -5.7062  -3.0772  -1.5344  -0.8672
    -0.4625   0.0715   0.2533   0.4011   1.0199   3.6214   5.5089   6.5271
     7.7120   8.3637  11.4625  13.2878

          k =-0.5143-0.0522 0.0464 (  2064 PWs)   bands (ev):

   -12.3846 -11.9041  -9.9146  -8.4571  -5.3472  -3.9894  -0.1586   0.3831
     0.8752   0.8963   1.2308   1.5513   2.1420   2.5518   3.2580   8.0344
     9.2432  10.0545  10.5317  12.7739

          k =-0.5679-0.0630 0.6588 (  2076 PWs)   bands (ev):

   -11.7114 -11.1633  -9.3344  -7.8191  -5.0747  -3.5716  -1.6132  -0.5237
    -0.3284   0.3069   0.8045   1.1521   1.6112   2.2904   3.8569   6.7563
     8.1991   8.2337   9.9787  13.3245

          k =-0.6214-0.0739 1.2711 (  2074 PWs)   bands (ev):

    -9.7358  -9.0987  -7.7873  -6.9397  -5.9394  -4.5088  -4.0464  -2.9864
    -2.1338  -1.1136  -0.6784   3.1970   3.2751   4.0387   4.5598   5.1898
     5.6159   7.0550   9.2471  11.1384

          k =-0.4458 0.5736 0.0344 (  2079 PWs)   bands (ev):

   -12.2476 -11.5765 -10.4413  -7.9312  -6.5649  -2.8638  -1.2912  -1.0428
     0.8505   0.9378   1.5917   1.7848   1.9976   2.6959   5.5448   7.8552
     8.8421  10.9983  11.4302  13.0894

          k =-0.4994 0.5627 0.6467 (  2078 PWs)   bands (ev):

   -11.5873 -10.7853  -9.9236  -7.0461  -6.4197  -2.4047  -1.6669  -1.2701
    -0.4981  -0.3767   0.4398   1.1273   1.2319   2.6667   6.2090   6.3809
     7.4828   8.4995  11.6340  13.0431

          k =-0.5530 0.5519 1.2590 (  2057 PWs)   bands (ev):

    -9.6102  -8.7388  -8.2670  -6.4979  -6.2578  -4.2214  -4.1365  -3.4568
    -2.2306  -0.9639  -0.6348   1.9239   2.7770   4.0551   4.6535   5.2437
     6.4314   6.9739  10.0832  11.3058

          k =-0.3387 0.5952-1.1903 (  2074 PWs)   bands (ev):

    -9.5053  -9.0922  -7.6674  -7.1384  -5.9129  -4.5890  -4.1838  -2.8825
    -2.2381  -1.1253  -0.7255   1.6883   3.1114   4.1017   4.4793   5.6315
     5.8755   7.3936   9.7152  11.8473

          k =-0.3923 0.5844-0.5780 (  2070 PWs)   bands (ev):

   -11.5302 -10.9709  -9.6293  -7.7145  -5.6730  -3.1035  -1.5562  -0.8023
    -0.5365  -0.3920   0.3404   0.9814   1.7593   2.3088   5.6519   6.5530
     8.3231   8.5491  10.5490  13.8116

     the Fermi energy is     6.5326 ev

!    total energy              =     -90.76231496 Ry
     Harris-Foulkes estimate   =     -90.76231496 Ry
     estimated scf accuracy    <          8.0E-09 Ry

     The total energy is the sum of the following terms:

     one-electron contribution =     -16.83740770 Ry
     hartree contribution      =      23.89075106 Ry
     xc contribution           =     -27.66525188 Ry
     ewald contribution        =     -70.14840216 Ry
     smearing contrib. (-TS)   =      -0.00200429 Ry

     convergence has been achieved in  10 iterations

     Forces acting on atoms (cartesian axes, Ry/au):

     atom    1 type  1   force =     0.00013368   -0.00224986   -0.00053133
     atom    2 type  1   force =     0.00571513   -0.01441591    0.00022119
     atom    3 type  1   force =    -0.03199772    0.01259106    0.00403270
     atom    4 type  1   force =     0.00004689    0.00210061    0.00045599
     atom    5 type  1   force =     0.03216198   -0.01251920   -0.00401635
     atom    6 type  1   force =    -0.00579059    0.01448202   -0.00018474
     atom    7 type  1   force =     0.02671722   -0.01719738   -0.00229265
     atom    8 type  1   force =    -0.02698661    0.01720865    0.00231519

     Total force =     0.070316     Total SCF correction =     0.000152


     Computing stress (Cartesian axis) and pressure

          total   stress  (Ry/bohr**3)                   (kbar)     P=        2.03
   0.00026893  -0.00002062  -0.00010892           39.56       -3.03      -16.02
  -0.00002062   0.00032932   0.00001172           -3.03       48.44        1.72
  -0.00010892   0.00001172  -0.00055682          -16.02        1.72      -81.91


     BFGS Geometry Optimization

     number of scf cycles    =   1
     number of bfgs steps    =   0

     enthalpy new            =     -90.7622819722 Ry

     new trust radius        =       0.0625147600 bohr
     new conv_thr            =       0.0000000100 Ry

     new unit-cell volume =    485.71383 a.u.^3 (    71.97536 Ang^3 )
     density =      2.21481 g/cm^3

CELL_PARAMETERS (bohr)
  14.079035998  -1.526565084   1.141807070
  -0.775353108   7.668921158   0.070875183
   0.405209480   0.045712205   4.582862656

ATOMIC_POSITIONS (crystal)
C             0.7287015922        0.2200651548        0.9383228759
C             0.8118542797        1.1441267645        0.3959938347
C             0.1889265082        0.7446003385        0.7080281760
C             0.5682899549        0.3571328215        1.0193709331
C             0.1078988832       -0.1678504360        0.2496599778
C             0.4851244719        0.4330548343        0.5617072473
C             0.3362772848        0.5830309035        0.6355189801
C             0.9606830252        0.9941096190        0.3221509750



     Writing output data file ./pp.save/
     NEW-OLD atomic charge density approx. for the potential
     extrapolated charge   32.02779, renormalised to   32.00000

     total cpu time spent up to now is        9.9 secs

     Self-consistent Calculation

     iteration #  1     ecut=    40.00 Ry     beta= 0.50
     Davidson diagonalization with overlap
     ethr =  1.00E-06,  avg # of iterations =  9.0

     total cpu time spent up to now is       12.6 secs

     total energy              =     -90.76101129 Ry
     Harris-Foulkes estimate   =     -90.75724635 Ry
     estimated scf accuracy    <       0.01143675 Ry

     iteration #  2     ecut=    40.00 Ry     beta= 0.50
     Davidson diagonalization with overlap
     ethr =  3.57E-05,  avg # of iterations =  3.2

     total cpu time spent up to now is       13.6 secs

     total energy              =     -90.76107034 Ry
     Harris-Foulkes estimate   =     -90.76813562 Ry
     estimated scf accuracy    <       0.02075002 Ry

     iteration #  3     ecut=    40.00 Ry     beta= 0.50
     Davidson diagonalization with overlap
     ethr =  3.57E-05,  avg # of iterations =  3.1

     total cpu time spent up to now is       14.6 secs

     total energy              =     -90.76468763 Ry
     Harris-Foulkes estimate   =     -90.76511855 Ry
     estimated scf accuracy    <       0.00130036 Ry

     iteration #  4     ecut=    40.00 Ry     beta= 0.50
     Davidson diagonalization with overlap
     ethr =  4.06E-06,  avg # of iterations =  2.5

     total cpu time spent up to now is       15.4 secs

     total energy              =     -90.76486827 Ry
     Harris-Foulkes estimate   =     -90.76489264 Ry
     estimated scf accuracy    <       0.00005757 Ry

     iteration #  5     ecut=    40.00 Ry     beta= 0.50
     Davidson diagonalization with overlap
     ethr =  1.80E-07,  avg # of iterations =  2.5

     total cpu time spent up to now is       16.4 secs

     total energy              =     -90.76488438 Ry
     Harris-Foulkes estimate   =     -90.76488747 Ry
     estimated scf accuracy    <       0.00000995 Ry

     iteration #  6     ecut=    40.00 Ry     beta= 0.50
     Davidson diagonalization with overlap
     ethr =  3.11E-08,  avg # of iterations =  2.0

     total cpu time spent up to now is       17.2 secs

     total energy              =     -90.76488557 Ry
     Harris-Foulkes estimate   =     -90.76488594 Ry
     estimated scf accuracy    <       0.00000143 Ry

     iteration #  7     ecut=    40.00 Ry     beta= 0.50
     Davidson diagonalization with overlap
     ethr =  4.46E-09,  avg # of iterations =  2.1

     total cpu time spent up to now is       18.1 secs

     total energy              =     -90.76488564 Ry
     Harris-Foulkes estimate   =     -90.76488635 Ry
     estimated scf accuracy    <       0.00000295 Ry

     iteration #  8     ecut=    40.00 Ry     beta= 0.50
     Davidson diagonalization with overlap
     ethr =  4.46E-09,  avg # of iterations =  2.1

     total cpu time spent up to now is       18.9 secs

     total energy              =     -90.76488595 Ry
     Harris-Foulkes estimate   =     -90.76488601 Ry
     estimated scf accuracy    <       0.00000017 Ry

     iteration #  9     ecut=    40.00 Ry     beta= 0.50
     Davidson diagonalization with overlap
     ethr =  5.24E-10,  avg # of iterations =  2.2

     total cpu time spent up to now is       19.9 secs

     End of self-consistent calculation

          k = 0.0000 0.0000 0.0000 (  2059 PWs)   bands (ev):

   -12.6240 -11.4813 -10.8121  -7.1579  -7.0469  -2.6739  -1.5223   0.3037
     0.8226   1.0935   1.2149   1.7419   1.8263   2.8976   4.7259   5.4935
     9.1513  11.0834  11.6295  12.8697

          k =-0.0515-0.0109 0.6208 (  2084 PWs)   bands (ev):

   -11.8864 -10.8457 -10.0462  -6.9226  -6.1739  -2.6486  -1.5083  -1.1922
    -0.7087   0.5039   1.1054   1.1454   1.5578   1.8650   5.0147   6.2784
     6.5961   8.3470  11.8573  12.6361

          k =-0.1031-0.0219 1.2417 (  2083 PWs)   bands (ev):

    -9.7497  -8.9621  -8.0152  -6.6699  -5.9244  -4.4372  -4.1374  -3.3324
    -2.0901  -1.1922  -0.6432   3.2730   3.3947   3.8101   4.4345   5.2535
     5.5984   6.9696   9.2695  10.9015

          k = 0.0683 0.6207-0.0122 (  2095 PWs)   bands (ev):

   -12.3600 -11.6447 -10.5322  -8.4229  -5.7805  -3.9190  -0.9423  -0.3882
    -0.3277   1.2068   1.3661   1.9541   2.7819   2.7990   4.8902   7.4984
     9.3934  10.6411  11.6406  13.3890

          k = 0.0168 0.6098 0.6086 (  2063 PWs)   bands (ev):

   -11.6154 -11.0352  -9.7052  -7.9774  -4.9731  -3.9336  -1.3540  -0.5327
    -0.3579  -0.2876   0.3688   0.7092   0.7787   3.4572   4.9939   6.8056
     7.9345   8.4176  10.6022  13.9844

          k =-0.0348 0.5988 1.2295 (  2069 PWs)   bands (ev):

    -9.4948  -9.1069  -7.6649  -7.0847  -5.7268  -4.6579  -4.3916  -2.7183
    -2.4690  -1.1346  -0.8187   1.8766   2.9979   4.2297   4.4424   5.4599
     5.6599   7.6990   9.4215  11.6674

          k = 0.1714 0.6426-1.2539 (  2059 PWs)   bands (ev):

    -9.5829  -8.7590  -8.2466  -6.5403  -6.0454  -4.3841  -4.1883  -3.5408
    -2.1490  -1.1462  -0.6465   2.0843   2.6140   4.3536   4.4291   5.0848
     6.2979   7.2988   9.7761  11.2903

          k = 0.1198 0.6317-0.6331 (  2069 PWs)   bands (ev):

   -11.6576 -10.8528 -10.0001  -7.5658  -5.7113  -3.2010  -1.3500  -0.8378
    -0.6137   0.0839   0.2209   0.4268   0.9875   3.4775   5.5761   6.6126
     7.5521   8.2047  11.5038  13.2795

          k =-0.5108-0.0521 0.0457 (  2064 PWs)   bands (ev):

   -12.4304 -12.0319 -10.1345  -8.4323  -5.3247  -4.2512  -0.1373   0.3341
     0.7516   1.1056   1.1487   1.4196   2.0090   2.7494   3.2887   7.7609
     9.5877  10.1711  10.4928  12.6536

          k =-0.5623-0.0630 0.6665 (  2076 PWs)   bands (ev):

   -11.7392 -11.2648  -9.5199  -7.7627  -5.0297  -3.7545  -1.4360  -0.5598
    -0.4112   0.3729   0.7381   1.1255   1.5188   2.1858   3.9188   6.8417
     8.0262   8.0502  10.0846  13.2789

          k =-0.6139-0.0740 1.2874 (  2074 PWs)   bands (ev):

    -9.6996  -9.1088  -7.8031  -6.8664  -5.7860  -4.5555  -4.2349  -3.0769
    -2.1496  -1.1779  -0.7096   3.2396   3.3177   4.0998   4.3730   5.2283
     5.3640   7.1855   9.2079  11.0905

          k =-0.4425 0.5687 0.0335 (  2079 PWs)   bands (ev):

   -12.3101 -11.7096 -10.6120  -7.9291  -6.6373  -3.0366  -1.3174  -1.0671
     0.7619   1.2212   1.5160   1.6995   1.9059   2.8303   5.4986   7.6125
     9.1694  10.9610  11.4463  12.8612

          k =-0.4940 0.5577 0.6543 (  2078 PWs)   bands (ev):

   -11.6312 -10.8951 -10.0568  -6.9784  -6.4907  -2.5255  -1.5355  -1.1772
    -0.6465  -0.3727   0.4530   1.1106   1.1989   2.5803   6.2224   6.4649
     7.3409   8.3408  11.6285  13.0418

          k =-0.5456 0.5468 1.2751 (  2057 PWs)   bands (ev):

    -9.5866  -8.7568  -8.2807  -6.4243  -6.1099  -4.2612  -4.2388  -3.6647
    -2.1491  -1.1071  -0.6382   2.0039   2.8715   4.1616   4.4795   5.0090
     6.3863   7.0712  10.0651  11.1775

          k =-0.3394 0.5906-1.2082 (  2074 PWs)   bands (ev):

    -9.4709  -9.1127  -7.7493  -6.9958  -5.7485  -4.6417  -4.3696  -2.9775
    -2.2562  -1.1933  -0.7464   1.7776   3.1871   4.1843   4.3290   5.3987
     5.8390   7.5206   9.6519  11.6825

          k =-0.3909 0.5796-0.5874 (  2070 PWs)   bands (ev):

   -11.5662 -11.0832  -9.7932  -7.6607  -5.6908  -3.2178  -1.3774  -0.7751
    -0.5526  -0.5266   0.3804   0.9481   1.6982   2.2447   5.6491   6.6382
     8.1578   8.3774  10.6066  13.7962

     the Fermi energy is     6.5571 ev

!    total energy              =     -90.76488598 Ry
     Harris-Foulkes estimate   =     -90.76488599 Ry
     estimated scf accuracy    <          8.3E-09 Ry

     The total energy is the sum of the following terms:

     one-electron contribution =     -17.65627698 Ry
     hartree contribution      =      24.27060059 Ry
     xc contribution           =     -27.67342395 Ry
     ewald contribution        =     -69.70490829 Ry
     smearing contrib. (-TS)   =      -0.00087736 Ry

     convergence has been achieved in   9 iterations

     Forces acting on atoms (cartesian axes, Ry/au):

     atom    1 type  1   force =    -0.02335771    0.00990985    0.00276513
     atom    2 type  1   force =    -0.00415693   -0.00613797    0.00017598
     atom    3 type  1   force =     0.02631312   -0.02243298   -0.00186398
     atom    4 type  1   force =     0.02330182   -0.00988461   -0.00274839
     atom    5 type  1   force =    -0.02638089    0.02273452    0.00189210
     atom    6 type  1   force =     0.00414054    0.00612757   -0.00021405
     atom    7 type  1   force =    -0.02835691    0.01979678    0.00207043
     atom    8 type  1   force =     0.02849696   -0.02011316   -0.00207721

     Total force =     0.079032     Total SCF correction =     0.000237


     Computing stress (Cartesian axis) and pressure

          total   stress  (Ry/bohr**3)                   (kbar)     P=        1.10
  -0.00021301   0.00028675  -0.00000190          -31.34       42.18       -0.28
   0.00028675   0.00009677  -0.00001191           42.18       14.24       -1.75
  -0.00000190  -0.00001191   0.00013861           -0.28       -1.75       20.39


     number of scf cycles    =   2
     number of bfgs steps    =   1

     enthalpy old            =     -90.7622819722 Ry
     enthalpy new            =     -90.7648529654 Ry

     CASE: enthalpy_new < enthalpy_old

     new trust radius        =       0.0252662587 bohr
     new conv_thr            =       0.0000000026 Ry

     new unit-cell volume =    486.00429 a.u.^3 (    72.01841 Ang^3 )
     density =      2.21349 g/cm^3

CELL_PARAMETERS (bohr)
  14.045039677  -1.468235180   1.131408035
  -0.739337114   7.692303241   0.070369233
   0.401424991   0.047219961   4.577943147

ATOMIC_POSITIONS (crystal)
C             0.7276110859        0.2206393367        0.9389629862
C             0.8116964527        1.1431102788        0.3960864090
C             0.1895557493        0.7431642936        0.7078222133
C             0.5693807972        0.3565562559        1.0187292765
C             0.1072706656       -0.1663856996        0.2498700537
C             0.4852803785        0.4340721149        0.5616117178
C             0.3354335835        0.5840500199        0.6359045851
C             0.9615272873        0.9930633998        0.3217657584



     Writing output data file ./pp.save/
     NEW-OLD atomic charge density approx. for the potential
     extrapolated charge   32.01912, renormalised to   32.00000

     total cpu time spent up to now is       19.9 secs

     Self-consistent Calculation

     iteration #  1     ecut=    40.00 Ry     beta= 0.50
     Davidson diagonalization with overlap
     ethr =  1.00E-06,  avg # of iterations =  6.3

     total cpu time spent up to now is       22.3 secs

     total energy              =     -90.76666875 Ry
     Harris-Foulkes estimate   =     -90.75986665 Ry
     estimated scf accuracy    <       0.00198901 Ry

     iteration #  2     ecut=    40.00 Ry     beta= 0.50
     Davidson diagonalization with overlap
     ethr =  6.22E-06,  avg # of iterations =  3.1

     total cpu time spent up to now is       23.6 secs

     total energy              =     -90.76676275 Ry
     Harris-Foulkes estimate   =     -90.76779295 Ry
     estimated scf accuracy    <       0.00290651 Ry

     iteration #  3     ecut=    40.00 Ry     beta= 0.50
     Davidson diagonalization with overlap
     ethr =  6.22E-06,  avg # of iterations =  3.0

     total cpu time spent up to now is       24.7 secs

     total energy              =     -90.76725831 Ry
     Harris-Foulkes estimate   =     -90.76736121 Ry
     estimated scf accuracy    <       0.00029799 Ry

     iteration #  4     ecut=    40.00 Ry     beta= 0.50
     Davidson diagonalization with overlap
     ethr =  9.31E-07,  avg # of iterations =  2.0

     total cpu time spent up to now is       25.7 secs

     total energy              =     -90.76730503 Ry
     Harris-Foulkes estimate   =     -90.76731018 Ry
     estimated scf accuracy    <       0.00001460 Ry

     iteration #  5     ecut=    40.00 Ry     beta= 0.50
     Davidson diagonalization with overlap
     ethr =  4.56E-08,  avg # of iterations =  2.6

     total cpu time spent up to now is       27.0 secs

     total energy              =     -90.76730844 Ry
     Harris-Foulkes estimate   =     -90.76730935 Ry
     estimated scf accuracy    <       0.00000267 Ry

     iteration #  6     ecut=    40.00 Ry     beta= 0.50
     Davidson diagonalization with overlap
     ethr =  8.34E-09,  avg # of iterations =  2.0

     total cpu time spent up to now is       28.1 secs

     total energy              =     -90.76730876 Ry
     Harris-Foulkes estimate   =     -90.76730891 Ry
     estimated scf accuracy    <       0.00000046 Ry

     iteration #  7     ecut=    40.00 Ry     beta= 0.50
     Davidson diagonalization with overlap
     ethr =  1.45E-09,  avg # of iterations =  2.1

     total cpu time spent up to now is       29.3 secs

     total energy              =     -90.76730880 Ry
     Harris-Foulkes estimate   =     -90.76730902 Ry
     estimated scf accuracy    <       0.00000091 Ry

     iteration #  8     ecut=    40.00 Ry     beta= 0.50
     Davidson diagonalization with overlap
     ethr =  1.45E-09,  avg # of iterations =  2.1

     total cpu time spent up to now is       30.5 secs

     total energy              =     -90.76730889 Ry
     Harris-Foulkes estimate   =     -90.76730892 Ry
     estimated scf accuracy    <       0.00000005 Ry

     iteration #  9     ecut=    40.00 Ry     beta= 0.50
     Davidson diagonalization with overlap
     ethr =  1.64E-10,  avg # of iterations =  2.2

     total cpu time spent up to now is       31.8 secs

     End of self-consistent calculation

          k = 0.0000 0.0000 0.0000 (  2059 PWs)   bands (ev):

   -12.6871 -11.5511 -10.8146  -7.2956  -7.1096  -2.6897  -1.6214   0.2413
     0.7431   1.0898   1.2197   1.6056   1.9075   3.0151   4.6964   5.5279
     9.0669  11.1781  11.5267  12.8956

          k =-0.0512-0.0106 0.6214 (  2084 PWs)   bands (ev):

   -11.9482 -10.9074 -10.0520  -7.0299  -6.2705  -2.6692  -1.5853  -1.2384
    -0.6483   0.5932   0.9847   1.0746   1.4800   1.8577   4.9930   6.2938
     6.5468   8.4165  11.8728  12.5370

          k =-0.1023-0.0212 1.2429 (  2083 PWs)   bands (ev):

    -9.8082  -9.0133  -8.0428  -6.7208  -6.0059  -4.4480  -4.1190  -3.3636
    -2.1946  -1.2246  -0.7326   3.1720   3.3270   3.7569   4.4285   5.2771
     5.5934   6.9382   9.3793  10.9672

          k = 0.0656 0.6183-0.0121 (  2095 PWs)   bands (ev):

   -12.4340 -11.7115 -10.5179  -8.5370  -5.8838  -3.9307  -0.9695  -0.4815
    -0.3873   1.2106   1.2376   2.0429   2.8060   2.8887   4.7752   7.5525
     9.3255  10.7023  11.5623  13.5300

          k = 0.0144 0.6077 0.6093 (  2063 PWs)   bands (ev):

   -11.6881 -11.0964  -9.6823  -8.1022  -5.1021  -3.9264  -1.3759  -0.4756
    -0.4364  -0.3126   0.4268   0.6014   0.7103   3.4849   4.8701   6.7729
     7.9821   8.4766  10.5315  14.0315

          k =-0.0367 0.5970 1.2307 (  2069 PWs)   bands (ev):

    -9.5637  -9.1624  -7.6312  -7.2020  -5.8130  -4.6346  -4.3962  -2.7463
    -2.5128  -1.2382  -0.8794   1.8433   2.9229   4.2258   4.3731   5.4617
     5.6610   7.6469   9.5096  11.7497

          k = 0.1679 0.6395-1.2550 (  2059 PWs)   bands (ev):

    -9.6497  -8.8296  -8.2474  -6.6154  -6.1128  -4.3893  -4.1675  -3.5559
    -2.2723  -1.1545  -0.7453   2.0317   2.5751   4.2654   4.4148   5.1109
     6.2935   7.2496   9.8651  11.3577

          k = 0.1168 0.6289-0.6336 (  2069 PWs)   bands (ev):

   -11.7298 -10.9201  -9.9890  -7.6756  -5.7989  -3.2336  -1.3788  -0.9150
    -0.5606   0.0315   0.1927   0.5093   0.8686   3.4533   5.4894   6.5642
     7.5821   8.2640  11.4678  13.3533

          k =-0.5115-0.0496 0.0454 (  2064 PWs)   bands (ev):

   -12.5028 -12.0774 -10.1214  -8.5733  -5.4544  -4.2459  -0.2263   0.2451
     0.6852   0.9959   1.1569   1.4548   2.0987   2.8511   3.2166   7.8635
     9.5224  10.0943  10.5442  12.5766

          k =-0.5626-0.0602 0.6668 (  2076 PWs)   bands (ev):

   -11.8065 -11.3128  -9.5075  -7.9008  -5.1451  -3.7692  -1.4502  -0.5619
    -0.4348   0.4391   0.6312   1.0405   1.4417   2.2303   3.8464   6.8024
     8.0979   8.1148  10.0355  13.1850

          k =-0.6138-0.0708 1.2882 (  2074 PWs)   bands (ev):

    -9.7568  -9.1640  -7.8107  -6.9434  -5.8655  -4.5532  -4.2282  -3.1081
    -2.2298  -1.2349  -0.7938   3.1574   3.2223   4.0687   4.3717   5.1965
     5.3831   7.1671   9.3158  11.1558

          k =-0.4459 0.5687 0.0332 (  2079 PWs)   bands (ev):

   -12.3907 -11.7611 -10.6192  -8.0333  -6.7158  -3.0696  -1.3570  -1.1596
     0.7309   1.2259   1.4379   1.6048   1.9885   2.9452   5.4340   7.6296
     9.0934  11.0430  11.4209  12.8716

          k =-0.4970 0.5581 0.6547 (  2078 PWs)   bands (ev):

   -11.7076 -10.9496 -10.0633  -7.0906  -6.5585  -2.5542  -1.6230  -1.2132
    -0.5916  -0.4185   0.5461   0.9980   1.1721   2.5198   6.1660   6.4112
     7.3374   8.4108  11.6432  13.0745

          k =-0.5482 0.5475 1.2761 (  2057 PWs)   bands (ev):

    -9.6548  -8.8220  -8.2904  -6.4812  -6.1912  -4.2742  -4.2132  -3.6729
    -2.2813  -1.1030  -0.7441   1.9499   2.8488   4.0553   4.4623   5.0431
     6.3820   7.0271  10.1490  11.2372

          k =-0.3435 0.5899-1.2096 (  2074 PWs)   bands (ev):

    -9.5421  -9.1635  -7.7490  -7.0773  -5.8393  -4.6258  -4.3659  -3.0035
    -2.3109  -1.2796  -0.8167   1.7362   3.1239   4.1300   4.3070   5.4081
     5.8298   7.4803   9.7372  11.7669

          k =-0.3947 0.5793-0.5882 (  2070 PWs)   bands (ev):

   -11.6452 -11.1322  -9.7918  -7.7691  -5.7832  -3.2459  -1.4053  -0.8597
    -0.5651  -0.4946   0.4588   0.8319   1.6204   2.2506   5.5769   6.5981
     8.2117   8.4021  10.5872  13.8456

     the Fermi energy is     6.5256 ev

!    total energy              =     -90.76730890 Ry
     Harris-Foulkes estimate   =     -90.76730890 Ry
     estimated scf accuracy    <          1.3E-09 Ry

     The total energy is the sum of the following terms:

     one-electron contribution =     -18.65333207 Ry
     hartree contribution      =      24.75395483 Ry
     xc contribution           =     -27.72302828 Ry
     ewald contribution        =     -69.14372904 Ry
     smearing contrib. (-TS)   =      -0.00117434 Ry

     convergence has been achieved in   9 iterations

     Forces acting on atoms (cartesian axes, Ry/au):

     atom    1 type  1   force =     0.01287586   -0.01155789   -0.00166354
     atom    2 type  1   force =    -0.00719187   -0.00235066    0.00192314
     atom    3 type  1   force =     0.00150203   -0.00279160    0.00065157
     atom    4 type  1   force =    -0.01293618    0.01158381    0.00166765
     atom    5 type  1   force =    -0.00140139    0.00291243   -0.00063695
     atom    6 type  1   force =     0.00730346    0.00225429   -0.00195996
     atom    7 type  1   force =    -0.00248259    0.00239035    0.00002685
     atom    8 type  1   force =     0.00233069   -0.00244073   -0.00000876

     Total force =     0.027825     Total SCF correction =     0.000095


     Computing stress (Cartesian axis) and pressure

          total   stress  (Ry/bohr**3)                   (kbar)     P=       25.44
   0.00013336   0.00005218   0.00000841           19.62        7.68        1.24
   0.00005218   0.00022061  -0.00001289            7.68       32.45       -1.90
   0.00000841  -0.00001289   0.00016493            1.24       -1.90       24.26


     number of scf cycles    =   3
     number of bfgs steps    =   2

     enthalpy old            =     -90.7648529654 Ry
     enthalpy new            =     -90.7672758660 Ry

     CASE: enthalpy_new < enthalpy_old

     new trust radius        =       0.0341294707 bohr
     new conv_thr            =       0.0000000013 Ry

     new unit-cell volume =    492.57784 a.u.^3 (    72.99250 Ang^3 )
     density =      2.18395 g/cm^3

CELL_PARAMETERS (bohr)
  14.077091822  -1.434189441   1.135433762
  -0.716783387   7.744092181   0.067798219
   0.402283330   0.047117530   4.595374995

ATOMIC_POSITIONS (crystal)
C             0.7280334636        0.2194930255        0.9386550329
C             0.8110609307        1.1422254054        0.3967012625
C             0.1898912050        0.7422019804        0.7078689231
C             0.5689543131        0.3577040510        1.0190384485
C             0.1069441409       -0.1653929779        0.2498257592
C             0.4859228968        0.4349459398        0.5609857554
C             0.3349226479        0.5847581820        0.6361075382
C             0.9620264020        0.9923343938        0.3215702802



     Writing output data file ./pp.save/
     NEW-OLD atomic charge density approx. for the potential
     extrapolated charge   32.42704, renormalised to   32.00000

     total cpu time spent up to now is       31.8 secs

     Self-consistent Calculation

     iteration #  1     ecut=    40.00 Ry     beta= 0.50
     Davidson diagonalization with overlap
     ethr =  1.00E-06,  avg # of iterations =  6.6

     total cpu time spent up to now is       35.2 secs

     total energy              =     -90.76378490 Ry
     Harris-Foulkes estimate   =     -90.57824727 Ry
     estimated scf accuracy    <       0.00377129 Ry

     iteration #  2     ecut=    40.00 Ry     beta= 0.50
     Davidson diagonalization with overlap
     ethr =  1.18E-05,  avg # of iterations =  4.4

     total cpu time spent up to now is       37.6 secs

     total energy              =     -90.76774052 Ry
     Harris-Foulkes estimate   =     -90.77058307 Ry
     estimated scf accuracy    <       0.00919178 Ry

     iteration #  3     ecut=    40.00 Ry     beta= 0.50
     Davidson diagonalization with overlap
     ethr =  1.18E-05,  avg # of iterations =  3.2

     total cpu time spent up to now is       39.4 secs

     total energy              =     -90.76875923 Ry
     Harris-Foulkes estimate   =     -90.76900173 Ry
     estimated scf accuracy    <       0.00094236 Ry

     iteration #  4     ecut=    40.00 Ry     beta= 0.50
     Davidson diagonalization with overlap
     ethr =  2.94E-06,  avg # of iterations =  1.2

     total cpu time spent up to now is       40.4 secs

     total energy              =     -90.76864351 Ry
     Harris-Foulkes estimate   =     -90.76881566 Ry
     estimated scf accuracy    <       0.00042887 Ry

     iteration #  5     ecut=    40.00 Ry     beta= 0.50
     Davidson diagonalization with overlap
     ethr =  1.34E-06,  avg # of iterations =  1.8

     total cpu time spent up to now is       41.7 secs

     total energy              =     -90.76862514 Ry
     Harris-Foulkes estimate   =     -90.76867085 Ry
     estimated scf accuracy    <       0.00008334 Ry

     iteration #  6     ecut=    40.00 Ry     beta= 0.50
     Davidson diagonalization with overlap
     ethr =  2.60E-07,  avg # of iterations =  2.2

     total cpu time spent up to now is       43.4 secs

     total energy              =     -90.76864297 Ry
     Harris-Foulkes estimate   =     -90.76864346 Ry
     estimated scf accuracy    <       0.00000139 Ry

     iteration #  7     ecut=    40.00 Ry     beta= 0.50
     Davidson diagonalization with overlap
     ethr =  4.36E-09,  avg # of iterations =  2.9

     total cpu time spent up to now is       45.3 secs

     total energy              =     -90.76864329 Ry
     Harris-Foulkes estimate   =     -90.76864338 Ry
     estimated scf accuracy    <       0.00000020 Ry

     iteration #  8     ecut=    40.00 Ry     beta= 0.50
     Davidson diagonalization with overlap
     ethr =  6.22E-10,  avg # of iterations =  2.4

     total cpu time spent up to now is       47.1 secs

     total energy              =     -90.76864335 Ry
     Harris-Foulkes estimate   =     -90.76864338 Ry
     estimated scf accuracy    <       0.00000010 Ry

     iteration #  9     ecut=    40.00 Ry     beta= 0.50
     Davidson diagonalization with overlap
     ethr =  3.22E-10,  avg # of iterations =  1.1

     total cpu time spent up to now is       48.4 secs

     total energy              =     -90.76864335 Ry
     Harris-Foulkes estimate   =     -90.76864337 Ry
     estimated scf accuracy    <       0.00000005 Ry

     iteration # 10     ecut=    40.00 Ry     beta= 0.50
     Davidson diagonalization with overlap
     ethr =  1.71E-10,  avg # of iterations =  1.9

     total cpu time spent up to now is       50.0 secs

     End of self-consistent calculation

          k = 0.0000 0.0000 0.0000 (  2059 PWs)   bands (ev):

   -12.7700 -11.6315 -10.9184  -7.4638  -7.1610  -2.7808  -1.7534   0.1251
     0.6171   0.9612   0.9927   1.5231   1.8115   2.7752   4.5447   5.4956
     8.8580  11.0246  11.3156  12.7523

          k =-0.0510-0.0101 0.6191 (  2084 PWs)   bands (ev):

   -12.0379 -10.9934 -10.1623  -7.1675  -6.3698  -2.7759  -1.7377  -1.4112
    -0.7297   0.3870   0.8960   0.9466   1.3485   1.7262   4.8567   6.2136
     6.3910   8.2942  11.7076  12.3230

          k =-0.1019-0.0203 1.2381 (  2083 PWs)   bands (ev):

    -9.9185  -9.1219  -8.1728  -6.8550  -6.1637  -4.5814  -4.2158  -3.4749
    -2.3239  -1.3389  -0.8391   3.0073   3.1747   3.6286   4.3150   5.1771
     5.4656   6.7889   9.1976  10.8195

          k = 0.0635 0.6137-0.0119 (  2095 PWs)   bands (ev):

   -12.5279 -11.8020 -10.6113  -8.6409  -5.9851  -4.0225  -1.0452  -0.6240
    -0.4892   0.9882   1.1667   1.9561   2.6350   2.6505   4.6204   7.4484
     9.1010  10.5693  11.3815  13.3861

          k = 0.0125 0.6036 0.6072 (  2063 PWs)   bands (ev):

   -11.7881 -11.1924  -9.7815  -8.2163  -5.2157  -4.0266  -1.5633  -0.6103
    -0.5296  -0.3919   0.2101   0.5266   0.5890   3.3430   4.7089   6.5967
     7.8829   8.3561  10.3412  13.8477

          k =-0.0384 0.5935 1.2263 (  2069 PWs)   bands (ev):

    -9.6831  -9.2788  -7.7449  -7.3499  -5.9698  -4.7806  -4.4624  -2.8637
    -2.6489  -1.3094  -1.0173   1.7387   2.7821   4.1108   4.2442   5.3630
     5.5124   7.4585   9.3200  11.6128

          k = 0.1654 0.6340-1.2500 (  2059 PWs)   bands (ev):

    -9.7704  -8.9408  -8.3756  -6.7462  -6.2731  -4.5157  -4.2779  -3.6475
    -2.3993  -1.2709  -0.8514   1.9122   2.4677   4.1105   4.3055   5.0136
     6.1534   7.0470   9.6691  11.1962

          k = 0.1144 0.6239-0.6309 (  2069 PWs)   bands (ev):

   -11.8307 -11.0137 -10.0910  -7.7916  -5.9037  -3.3372  -1.5661  -1.0615
    -0.6414  -0.0740   0.1119   0.3050   0.7792   3.2853   5.3291   6.4001
     7.4655   8.1444  11.2819  13.1867

          k =-0.5100-0.0476 0.0451 (  2064 PWs)   bands (ev):

   -12.5934 -12.1505 -10.2269  -8.6858  -5.5626  -4.3434  -0.3746   0.1077
     0.5644   0.9407   0.9434   1.3442   2.0177   2.5868   3.1113   7.7674
     9.2800   9.9732  10.4243  12.3642

          k =-0.5610-0.0577 0.6642 (  2076 PWs)   bands (ev):

   -11.9015 -11.3945  -9.6174  -8.0242  -5.2611  -3.8761  -1.6309  -0.6953
    -0.5270   0.2287   0.5499   0.9024   1.3047   2.1207   3.7301   6.6255
     7.9936   8.0065   9.8938  12.9658

          k =-0.6119-0.0679 1.2833 (  2074 PWs)   bands (ev):

    -9.8681  -9.2726  -7.9399  -7.0774  -6.0286  -4.6858  -4.3142  -3.2238
    -2.3683  -1.3313  -0.9110   3.0138   3.0510   3.9345   4.2571   5.0753
     5.2850   7.0124   9.1385  10.9975

          k =-0.4465 0.5661 0.0333 (  2079 PWs)   bands (ev):

   -12.4909 -11.8372 -10.7241  -8.1416  -6.8014  -3.1715  -1.4366  -1.2880
     0.6379   1.0010   1.3221   1.4942   1.8937   2.7010   5.2629   7.5030
     8.8842  10.8934  11.2918  12.6722

          k =-0.4975 0.5560 0.6523 (  2078 PWs)   bands (ev):

   -11.8124 -11.0304 -10.1765  -7.2276  -6.6358  -2.6616  -1.7727  -1.3937
    -0.6763  -0.5105   0.3426   0.9080   1.0808   2.3615   5.9830   6.2527
     7.2165   8.2861  11.4995  12.8751

          k =-0.5484 0.5459 1.2714 (  2057 PWs)   bands (ev):

    -9.7760  -8.9258  -8.4262  -6.6002  -6.3635  -4.3901  -4.3436  -3.7534
    -2.4060  -1.2308  -0.8420   1.8315   2.7373   3.9049   4.3553   4.9439
     6.2510   6.8196   9.9365  11.0833

          k =-0.3446 0.5864-1.2048 (  2074 PWs)   bands (ev):

    -9.6649  -9.2755  -7.8723  -7.2161  -5.9968  -4.7685  -4.4344  -3.1232
    -2.4420  -1.3689  -0.9394   1.6328   2.9796   4.0073   4.1915   5.3084
     5.6735   7.2998   9.5370  11.6244

          k =-0.3955 0.5763-0.5858 (  2070 PWs)   bands (ev):

   -11.7514 -11.2171  -9.8999  -7.8828  -5.8836  -3.3580  -1.5860  -1.0046
    -0.6480  -0.5728   0.2466   0.7449   1.4872   2.1346   5.4015   6.4326
     8.0955   8.2594  10.4388  13.6572

     the Fermi energy is     6.3800 ev

!    total energy              =     -90.76864336 Ry
     Harris-Foulkes estimate   =     -90.76864336 Ry
     estimated scf accuracy    <          1.0E-09 Ry

     The total energy is the sum of the following terms:

     one-electron contribution =     -19.80291780 Ry
     hartree contribution      =      25.16106855 Ry
     xc contribution           =     -27.68755672 Ry
     ewald contribution        =     -68.43765956 Ry
     smearing contrib. (-TS)   =      -0.00157782 Ry

     convergence has been achieved in  10 iterations

     Forces acting on atoms (cartesian axes, Ry/au):

     atom    1 type  1   force =    -0.00027032   -0.00450284    0.00052801
     atom    2 type  1   force =     0.00160500   -0.00585209    0.00025445
     atom    3 type  1   force =    -0.00936402    0.00711020    0.00064821
     atom    4 type  1   force =     0.00032292    0.00446384   -0.00055356
     atom    5 type  1   force =     0.00945132   -0.00702419   -0.00063486
     atom    6 type  1   force =    -0.00170424    0.00587698   -0.00024972
     atom    7 type  1   force =     0.01002729   -0.00545355   -0.00101120
     atom    8 type  1   force =    -0.01006794    0.00538165    0.00101865

     Total force =     0.025608     Total SCF correction =     0.000050


     Computing stress (Cartesian axis) and pressure

          total   stress  (Ry/bohr**3)                   (kbar)     P=       10.22
   0.00004869   0.00008888   0.00000775            7.16       13.08        1.14
   0.00008888   0.00017791  -0.00002173           13.08       26.17       -3.20
   0.00000775  -0.00002173  -0.00001821            1.14       -3.20       -2.68


     number of scf cycles    =   4
     number of bfgs steps    =   3

     enthalpy old            =     -90.7672758660 Ry
     enthalpy new            =     -90.7686098719 Ry

     CASE: enthalpy_new < enthalpy_old

     new trust radius        =       0.0815607865 bohr
     new conv_thr            =       0.0000000010 Ry

     new unit-cell volume =    503.63034 a.u.^3 (    74.63032 Ang^3 )
     density =      2.13602 g/cm^3

CELL_PARAMETERS (bohr)
  14.117862609  -1.332807344   1.136900435
  -0.650496718   7.861586277   0.058653725
   0.403118677   0.045797699   4.607049872

ATOMIC_POSITIONS (crystal)
C             0.7278494744        0.2176274758        0.9388368763
C             0.8103759309        1.1395495855        0.3975032639
C             0.1896179409        0.7415721916        0.7082823451
C             0.5691395952        0.3595631907        1.0188474725
C             0.1072383099       -0.1646953080        0.2494182998
C             0.4866044259        0.4376126480        0.5601741893
C             0.3349643508        0.5851966696        0.6359453584
C             0.9619659719        0.9918435468        0.3217451948



     Writing output data file ./pp.save/
     NEW-OLD atomic charge density approx. for the potential
     extrapolated charge   32.70225, renormalised to   32.00000

     total cpu time spent up to now is       50.1 secs

     Self-consistent Calculation

     iteration #  1     ecut=    40.00 Ry     beta= 0.50
     Davidson diagonalization with overlap
     ethr =  1.00E-06,  avg # of iterations =  8.2

     total cpu time spent up to now is       55.2 secs

     total energy              =     -90.75945963 Ry
     Harris-Foulkes estimate   =     -90.40490289 Ry
     estimated scf accuracy    <       0.00577879 Ry

     iteration #  2     ecut=    40.00 Ry     beta= 0.50
     Davidson diagonalization with overlap
     ethr =  1.81E-05,  avg # of iterations =  4.7

     total cpu time spent up to now is       58.5 secs

     total energy              =     -90.77063270 Ry
     Harris-Foulkes estimate   =     -90.77369188 Ry
     estimated scf accuracy    <       0.00960765 Ry

     iteration #  3     ecut=    40.00 Ry     beta= 0.50
     Davidson diagonalization with overlap
     ethr =  1.81E-05,  avg # of iterations =  2.4

     total cpu time spent up to now is       60.4 secs

     total energy              =     -90.77124343 Ry
     Harris-Foulkes estimate   =     -90.77169162 Ry
     estimated scf accuracy    <       0.00237019 Ry

     iteration #  4     ecut=    40.00 Ry     beta= 0.50
     Davidson diagonalization with overlap
     ethr =  7.41E-06,  avg # of iterations =  1.1

     total cpu time spent up to now is       61.8 secs

     total energy              =     -90.77086344 Ry
     Harris-Foulkes estimate   =     -90.77135618 Ry
     estimated scf accuracy    <       0.00144574 Ry

     iteration #  5     ecut=    40.00 Ry     beta= 0.50
     Davidson diagonalization with overlap
     ethr =  4.52E-06,  avg # of iterations =  1.7

     total cpu time spent up to now is       63.5 secs

     total energy              =     -90.77066511 Ry
     Harris-Foulkes estimate   =     -90.77092062 Ry
     estimated scf accuracy    <       0.00042421 Ry

     iteration #  6     ecut=    40.00 Ry     beta= 0.50
     Davidson diagonalization with overlap
     ethr =  1.33E-06,  avg # of iterations =  3.0

     total cpu time spent up to now is       66.1 secs

     total energy              =     -90.77075985 Ry
     Harris-Foulkes estimate   =     -90.77076359 Ry
     estimated scf accuracy    <       0.00001074 Ry

     iteration #  7     ecut=    40.00 Ry     beta= 0.50
     Davidson diagonalization with overlap
     ethr =  3.36E-08,  avg # of iterations =  2.6

     total cpu time spent up to now is       68.3 secs

     total energy              =     -90.77076064 Ry
     Harris-Foulkes estimate   =     -90.77076186 Ry
     estimated scf accuracy    <       0.00000398 Ry

     iteration #  8     ecut=    40.00 Ry     beta= 0.50
     Davidson diagonalization with overlap
     ethr =  1.24E-08,  avg # of iterations =  1.0

     total cpu time spent up to now is       69.9 secs

     total energy              =     -90.77076042 Ry
     Harris-Foulkes estimate   =     -90.77076094 Ry
     estimated scf accuracy    <       0.00000091 Ry

     iteration #  9     ecut=    40.00 Ry     beta= 0.50
     Davidson diagonalization with overlap
     ethr =  2.85E-09,  avg # of iterations =  2.7

     total cpu time spent up to now is       72.4 secs

     total energy              =     -90.77076066 Ry
     Harris-Foulkes estimate   =     -90.77076087 Ry
     estimated scf accuracy    <       0.00000048 Ry

     iteration # 10     ecut=    40.00 Ry     beta= 0.50
     Davidson diagonalization with overlap
     ethr =  1.50E-09,  avg # of iterations =  2.0

     total cpu time spent up to now is       74.5 secs

     total energy              =     -90.77076073 Ry
     Harris-Foulkes estimate   =     -90.77076073 Ry
     estimated scf accuracy    <          9.7E-09 Ry

     iteration # 11     ecut=    40.00 Ry     beta= 0.50
     Davidson diagonalization with overlap
     ethr =  3.02E-11,  avg # of iterations =  3.2

     total cpu time spent up to now is       77.6 secs

     End of self-consistent calculation

          k = 0.0000 0.0000 0.0000 (  2059 PWs)   bands (ev):

   -12.9637 -11.8459 -11.1510  -7.7095  -7.3978  -3.0093  -1.9562  -0.1188
     0.3231   0.7202   0.7205   1.3137   1.5379   2.4859   4.3950   5.3454
     8.5676  10.7539  10.9029  12.5381

          k =-0.0506-0.0088 0.6175 (  2084 PWs)   bands (ev):

   -12.2370 -11.2111 -10.4003  -7.4175  -6.6117  -3.0147  -1.9701  -1.6461
    -0.9806   0.1183   0.6766   0.6820   1.0625   1.4865   4.6934   6.0284
     6.1584   8.0502  11.4783  11.9080

          k =-0.1011-0.0176 1.2349 (  2083 PWs)   bands (ev):

   -10.1349  -9.3539  -8.4250  -7.1100  -6.4097  -4.8290  -4.4549  -3.7099
    -2.5544  -1.5703  -1.0700   2.6830   2.8933   3.4099   4.1006   4.9590
     5.2531   6.5755   8.9630  10.6205

          k = 0.0579 0.6035-0.0111 (  2095 PWs)   bands (ev):

   -12.7414 -12.0423 -10.8221  -8.8599  -6.2120  -4.2283  -1.1906  -0.8532
    -0.7120   0.7104   0.9612   1.6849   2.3424   2.3442   4.3526   7.2342
     8.8187  10.3009  11.0837  13.0994

          k = 0.0073 0.5947 0.6064 (  2063 PWs)   bands (ev):

   -12.0030 -11.4374  -9.9979  -8.4444  -5.4498  -4.2439  -1.8228  -0.8553
    -0.7741  -0.5407  -0.0573   0.3107   0.3388   3.0745   4.4285   6.3512
     7.6536   8.1370  10.0474  13.5449

          k =-0.0432 0.5860 1.2238 (  2069 PWs)   bands (ev):

    -9.9119  -9.5344  -7.9821  -7.6069  -6.2131  -5.0290  -4.6876  -3.0836
    -2.8828  -1.5269  -1.2567   1.5602   2.5196   3.9004   4.0250   5.1526
     5.2322   7.1916   9.0516  11.3762

          k = 0.1590 0.6211-1.2460 (  2059 PWs)   bands (ev):

   -10.0100  -9.1832  -8.6226  -6.9956  -6.5192  -4.7562  -4.5120  -3.8677
    -2.6237  -1.5072  -1.0778   1.6965   2.2889   3.8320   4.1009   4.8082
     5.8790   6.7581   9.4041  10.9480

          k = 0.1084 0.6123-0.6285 (  2069 PWs)   bands (ev):

   -12.0523 -11.2522 -10.3107  -8.0148  -6.1353  -3.5563  -1.8245  -1.2981
    -0.8950  -0.2754  -0.0504   0.0398   0.5597   2.9524   5.0750   6.1564
     7.2286   7.9024  11.0013  12.9655

          k =-0.5077-0.0423 0.0448 (  2064 PWs)   bands (ev):

   -12.7923 -12.3549 -10.4685  -8.9275  -5.7961  -4.5672  -0.5950  -0.1691
     0.2643   0.6685   0.7496   1.1617   1.7480   2.2933   2.9405   7.5955
     8.9903   9.8000  10.1501  11.9357

          k =-0.5582-0.0511 0.6623 (  2076 PWs)   bands (ev):

   -12.1040 -11.6056  -9.8616  -8.2713  -5.5033  -4.1065  -1.8808  -0.9279
    -0.7791  -0.0370   0.3360   0.6265   0.9935   1.9365   3.5507   6.3724
     7.7537   7.8236   9.6917  12.5412

          k =-0.6088-0.0599 1.2798 (  2074 PWs)   bands (ev):

   -10.0851  -9.5029  -8.1969  -7.3239  -6.2828  -4.9310  -4.5511  -3.4556
    -2.6031  -1.5642  -1.1403   2.7187   2.7454   3.7039   4.0384   4.8772
     5.0726   6.7908   8.9011  10.7908

          k =-0.4498 0.5612 0.0338 (  2079 PWs)   bands (ev):

   -12.7170 -12.0452 -10.9632  -8.3562  -7.0103  -3.4045  -1.5982  -1.4989
     0.4384   0.7253   1.0715   1.2508   1.6144   2.4164   4.9778   7.2201
     8.6027  10.6226  11.1123  12.2807

          k =-0.5003 0.5524 0.6512 (  2078 PWs)   bands (ev):

   -12.0418 -11.2392 -10.4231  -7.4508  -6.8546  -2.9038  -2.0040  -1.6369
    -0.9394  -0.6915   0.0828   0.6918   0.9054   2.0443   5.7132   6.0106
     6.9404   8.0440  11.3079  12.5846

          k =-0.5509 0.5436 1.2687 (  2057 PWs)   bands (ev):

   -10.0166  -9.1519  -8.6886  -6.8504  -6.6129  -4.6349  -4.5667  -3.9755
    -2.6324  -1.4668  -1.0681   1.6187   2.5506   3.6317   4.1554   4.7331
     5.9787   6.5439   9.6484  10.8416

          k =-0.3487 0.5788-1.2011 (  2074 PWs)   bands (ev):

    -9.9015  -9.5220  -8.1189  -7.4653  -6.2419  -5.0144  -4.6553  -3.3494
    -2.6725  -1.5920  -1.1751   1.4565   2.7111   3.8013   3.9759   5.0941
     5.3834   7.0471   9.2507  11.3678

          k =-0.3992 0.5700-0.5837 (  2070 PWs)   bands (ev):

   -11.9791 -11.4380 -10.1369  -8.1043  -6.1003  -3.5969  -1.8383  -1.2362
    -0.8333  -0.8027  -0.0157   0.5254   1.2050   1.9303   5.0989   6.1871
     7.8550   7.9818  10.2311  13.3130

     the Fermi energy is     6.1398 ev

!    total energy              =     -90.77076073 Ry
     Harris-Foulkes estimate   =     -90.77076073 Ry
     estimated scf accuracy    <          5.5E-10 Ry

     The total energy is the sum of the following terms:

     one-electron contribution =     -22.72315498 Ry
     hartree contribution      =      26.33437564 Ry
     xc contribution           =     -27.67325002 Ry
     ewald contribution        =     -66.70713330 Ry
     smearing contrib. (-TS)   =      -0.00159807 Ry

     convergence has been achieved in  11 iterations

     Forces acting on atoms (cartesian axes, Ry/au):

     atom    1 type  1   force =    -0.00643020   -0.00035029    0.00209080
     atom    2 type  1   force =    -0.00069461   -0.00102223   -0.00085643
     atom    3 type  1   force =    -0.00878405    0.01092752   -0.00092566
     atom    4 type  1   force =     0.00645396    0.00033361   -0.00212219
     atom    5 type  1   force =     0.00892109   -0.01094043    0.00092707
     atom    6 type  1   force =     0.00061889    0.00101727    0.00087624
     atom    7 type  1   force =     0.00810859   -0.00365939   -0.00081883
     atom    8 type  1   force =    -0.00819367    0.00369394    0.00082900

     Total force =     0.025601     Total SCF correction =     0.000046


     Computing stress (Cartesian axis) and pressure

          total   stress  (Ry/bohr**3)                   (kbar)     P=        5.92
   0.00007226   0.00004466  -0.00000451           10.63        6.57       -0.66
   0.00004466   0.00016016  -0.00001268            6.57       23.56       -1.86
  -0.00000451  -0.00001268  -0.00011161           -0.66       -1.86      -16.42


     number of scf cycles    =   5
     number of bfgs steps    =   4

     enthalpy old            =     -90.7686098719 Ry
     enthalpy new            =     -90.7707264937 Ry

     CASE: enthalpy_new < enthalpy_old

     new trust radius        =       0.1211868675 bohr
     new conv_thr            =       0.0000000011 Ry

     new unit-cell volume =    519.59518 a.u.^3 (    76.99606 Ang^3 )
     density =      2.07039 g/cm^3

CELL_PARAMETERS (bohr)
  14.200687946  -1.198046235   1.128877703
  -0.561123384   8.043619805   0.046583803
   0.403013865   0.044324382   4.608737834

ATOMIC_POSITIONS (crystal)
C             0.7270248237        0.2152536860        0.9397162387
C             0.8091406633        1.1362537892        0.3984546674
C             0.1892087673        0.7415491861        0.7084461775
C             0.5699638373        0.3619304282        1.0179522065
C             0.1076851057       -0.1645849121        0.2492590043
C             0.4878358185        0.4408887060        0.5592124345
C             0.3349747543        0.5860599063        0.6357296255
C             0.9619222299        0.9909192102        0.3219826456



     Writing output data file ./pp.save/
     NEW-OLD atomic charge density approx. for the potential
     extrapolated charge   32.98321, renormalised to   32.00000

     total cpu time spent up to now is       77.7 secs

     Self-consistent Calculation

     iteration #  1     ecut=    40.00 Ry     beta= 0.50
     Davidson diagonalization with overlap
     ethr =  1.00E-06,  avg # of iterations =  9.6

     total cpu time spent up to now is       85.1 secs

     total energy              =     -90.74973251 Ry
     Harris-Foulkes estimate   =     -90.14952378 Ry
     estimated scf accuracy    <       0.01119581 Ry

     iteration #  2     ecut=    40.00 Ry     beta= 0.50
     Davidson diagonalization with overlap
     ethr =  3.50E-05,  avg # of iterations =  4.6

     total cpu time spent up to now is       89.3 secs

     total energy              =     -90.77361131 Ry
     Harris-Foulkes estimate   =     -90.77843311 Ry
     estimated scf accuracy    <       0.01497650 Ry

     iteration #  3     ecut=    40.00 Ry     beta= 0.50
     Davidson diagonalization with overlap
     ethr =  3.50E-05,  avg # of iterations =  1.4

     total cpu time spent up to now is       91.2 secs

     total energy              =     -90.77414283 Ry
     Harris-Foulkes estimate   =     -90.77494760 Ry
     estimated scf accuracy    <       0.00449834 Ry

     iteration #  4     ecut=    40.00 Ry     beta= 0.50
     Davidson diagonalization with overlap
     ethr =  1.41E-05,  avg # of iterations =  1.0

     total cpu time spent up to now is       93.0 secs

     total energy              =     -90.77309839 Ry
     Harris-Foulkes estimate   =     -90.77434275 Ry
     estimated scf accuracy    <       0.00295765 Ry

     iteration #  5     ecut=    40.00 Ry     beta= 0.50
     Davidson diagonalization with overlap
     ethr =  9.24E-06,  avg # of iterations =  2.1

     total cpu time spent up to now is       95.4 secs

     total energy              =     -90.77300961 Ry
     Harris-Foulkes estimate   =     -90.77329152 Ry
     estimated scf accuracy    <       0.00045965 Ry

     iteration #  6     ecut=    40.00 Ry     beta= 0.50
     Davidson diagonalization with overlap
     ethr =  1.44E-06,  avg # of iterations =  3.4

     total cpu time spent up to now is       98.9 secs

     total energy              =     -90.77312751 Ry
     Harris-Foulkes estimate   =     -90.77313371 Ry
     estimated scf accuracy    <       0.00002599 Ry

     iteration #  7     ecut=    40.00 Ry     beta= 0.50
     Davidson diagonalization with overlap
     ethr =  8.12E-08,  avg # of iterations =  1.8

     total cpu time spent up to now is      101.3 secs

     total energy              =     -90.77312577 Ry
     Harris-Foulkes estimate   =     -90.77312977 Ry
     estimated scf accuracy    <       0.00001135 Ry

     iteration #  8     ecut=    40.00 Ry     beta= 0.50
     Davidson diagonalization with overlap
     ethr =  3.55E-08,  avg # of iterations =  1.3

     total cpu time spent up to now is      103.3 secs

     total energy              =     -90.77312542 Ry
     Harris-Foulkes estimate   =     -90.77312665 Ry
     estimated scf accuracy    <       0.00000209 Ry

     iteration #  9     ecut=    40.00 Ry     beta= 0.50
     Davidson diagonalization with overlap
     ethr =  6.54E-09,  avg # of iterations =  2.9

     total cpu time spent up to now is      106.6 secs

     total energy              =     -90.77312611 Ry
     Harris-Foulkes estimate   =     -90.77312656 Ry
     estimated scf accuracy    <       0.00000124 Ry

     iteration # 10     ecut=    40.00 Ry     beta= 0.50
     Davidson diagonalization with overlap
     ethr =  3.86E-09,  avg # of iterations =  1.4

     total cpu time spent up to now is      108.8 secs

     total energy              =     -90.77312616 Ry
     Harris-Foulkes estimate   =     -90.77312622 Ry
     estimated scf accuracy    <       0.00000013 Ry

     iteration # 11     ecut=    40.00 Ry     beta= 0.50
     Davidson diagonalization with overlap
     ethr =  4.20E-10,  avg # of iterations =  2.8

     total cpu time spent up to now is      112.2 secs

     total energy              =     -90.77312620 Ry
     Harris-Foulkes estimate   =     -90.77312620 Ry
     estimated scf accuracy    <          1.6E-09 Ry

     iteration # 12     ecut=    40.00 Ry     beta= 0.50
     Davidson diagonalization with overlap
     ethr =  5.08E-12,  avg # of iterations =  2.5

     total cpu time spent up to now is      115.5 secs

     End of self-consistent calculation

          k = 0.0000 0.0000 0.0000 (  2059 PWs)   bands (ev):

   -13.2489 -12.1798 -11.4564  -8.0510  -7.7256  -3.3230  -2.2697  -0.5040
    -0.0665   0.4028   0.4066   0.9987   1.1805   2.1457   4.1723   5.1123
     8.2436  10.3530  10.4109  12.1722

          k =-0.0497-0.0070 0.6171 (  2084 PWs)   bands (ev):

   -12.5244 -11.5399 -10.7118  -7.7543  -6.9396  -3.3308  -2.2883  -1.9553
    -1.3290  -0.2193   0.2800   0.3598   0.6870   1.1834   4.4624   5.7388
     5.8707   7.7075  11.1531  11.3592

          k =-0.0993-0.0141 1.2343 (  2083 PWs)   bands (ev):

   -10.4279  -9.6733  -8.7435  -7.4281  -6.7352  -5.1481  -4.7951  -4.0459
    -2.8795  -1.8832  -1.3908   2.2638   2.5403   3.1152   3.7692   4.6177
     4.9741   6.2781   8.6731  10.3072

          k = 0.0505 0.5887-0.0101 (  2095 PWs)   bands (ev):

   -13.0537 -12.3940 -11.1159  -9.1621  -6.5271  -4.5347  -1.4084  -1.1710
    -1.0174   0.3861   0.6365   1.3185   1.9108   2.0143   3.9856   6.9014
     8.5006   9.9695  10.6649  12.6328

          k = 0.0008 0.5817 0.6071 (  2063 PWs)   bands (ev):

   -12.3138 -11.7861 -10.2990  -8.7479  -5.7610  -4.5565  -2.1488  -1.1766
    -1.1249  -0.7494  -0.3788  -0.0122  -0.0052   2.6933   4.0596   6.0334
     7.3248   7.8026   9.6587  13.0268

          k =-0.0488 0.5746 1.2242 (  2069 PWs)   bands (ev):

   -10.2258  -9.8731  -8.2962  -7.9222  -6.5329  -5.3435  -5.0178  -3.4007
    -3.2083  -1.8413  -1.5707   1.3356   2.1784   3.5915   3.7307   4.8140
     4.8553   6.8490   8.7030  11.0182

          k = 0.1498 0.6028-1.2443 (  2059 PWs)   bands (ev):

   -10.3324  -9.5271  -8.9208  -7.3173  -6.8334  -5.0753  -4.8312  -4.2011
    -2.9332  -1.8305  -1.3892   1.4220   2.0556   3.4726   3.7803   4.4855
     5.5097   6.3885   9.0664  10.5768

          k = 0.1001 0.5957-0.6272 (  2069 PWs)   bands (ev):

   -12.3693 -11.6022 -10.6040  -8.3174  -6.4487  -3.8638  -2.1483  -1.6171
    -1.2496  -0.5619  -0.2962  -0.2669   0.2420   2.5020   4.7251   5.8373
     6.8887   7.5647  10.6073  12.6528

          k =-0.5036-0.0354 0.0444 (  2064 PWs)   bands (ev):

   -13.0870 -12.6559 -10.8073  -9.2566  -6.1127  -4.9013  -0.8931  -0.5599
    -0.1637   0.3511   0.4206   0.9188   1.3757   1.9692   2.7069   7.3118
     8.6613   9.5384   9.8137  11.3555

          k =-0.5533-0.0424 0.6615 (  2076 PWs)   bands (ev):

   -12.3981 -11.9110 -10.1975  -8.6000  -5.8236  -4.4344  -2.1935  -1.2401
    -1.1330  -0.3637   0.0160   0.2398   0.5676   1.6861   3.3090   6.0422
     7.4122   7.5465   9.4006  11.9746

          k =-0.6030-0.0495 1.2786 (  2074 PWs)   bands (ev):

   -10.3797  -9.8164  -8.5218  -7.6419  -6.6092  -5.2508  -4.8868  -3.7900
    -2.9282  -1.8884  -1.4525   2.3010   2.3915   3.4056   3.7059   4.5997
     4.7358   6.5000   8.5923  10.4805

          k =-0.4532 0.5533 0.0343 (  2079 PWs)   bands (ev):

   -13.0457 -12.3587 -11.2867  -8.6573  -7.3057  -3.7329  -1.8346  -1.8039
     0.1142   0.4035   0.7413   0.9070   1.2457   2.0864   4.5800   6.8021
     8.2890  10.2824  10.8270  11.7315

          k =-0.5028 0.5463 0.6514 (  2078 PWs)   bands (ev):

   -12.3687 -11.5563 -10.7438  -7.7571  -7.1531  -3.2239  -2.3214  -1.9553
    -1.3018  -0.9397  -0.2453   0.3790   0.6490   1.6265   5.3380   5.6949
     6.5548   7.7068  11.0066  12.2025

          k =-0.5525 0.5392 1.2686 (  2057 PWs)   bands (ev):

   -10.3404  -9.4822  -8.9993  -7.1679  -6.9366  -4.9487  -4.8791  -4.3146
    -2.9445  -1.7859  -1.3826   1.3479   2.3158   3.2640   3.8345   4.4087
     5.6284   6.1792   9.2935  10.4653

          k =-0.3539 0.5674-1.1999 (  2074 PWs)   bands (ev):

   -10.2252  -9.8497  -8.4399  -7.7738  -6.5660  -5.3254  -4.9812  -3.6679
    -3.0013  -1.8999  -1.4949   1.2315   2.3694   3.5183   3.6516   4.7533
     5.0110   6.7119   8.8867  10.9778

          k =-0.4035 0.5603-0.5828 (  2070 PWs)   bands (ev):

   -12.3065 -11.7575 -10.4584  -8.4036  -6.3974  -3.9227  -2.1597  -1.5486
    -1.1960  -1.0244  -0.3360   0.2053   0.8047   1.6586   4.6931   5.8690
     7.5060   7.5885   9.9348  12.7285

     the Fermi energy is     5.8239 ev

!    total energy              =     -90.77312620 Ry
     Harris-Foulkes estimate   =     -90.77312620 Ry
     estimated scf accuracy    <          5.7E-10 Ry

     The total energy is the sum of the following terms:

     one-electron contribution =     -27.06425471 Ry
     hartree contribution      =      28.11227906 Ry
     xc contribution           =     -27.65243303 Ry
     ewald contribution        =     -64.16722413 Ry
     smearing contrib. (-TS)   =      -0.00149338 Ry

     convergence has been achieved in  12 iterations

     Forces acting on atoms (cartesian axes, Ry/au):

     atom    1 type  1   force =    -0.00547419    0.00099721    0.00044626
     atom    2 type  1   force =     0.00372251   -0.00011940   -0.00054682
     atom    3 type  1   force =    -0.00103319    0.00921321   -0.00104417
     atom    4 type  1   force =     0.00548680   -0.00100992   -0.00046055
     atom    5 type  1   force =     0.00101652   -0.00920987    0.00104656
     atom    6 type  1   force =    -0.00391414    0.00016402    0.00057112
     atom    7 type  1   force =     0.01111868   -0.00396270   -0.00102449
     atom    8 type  1   force =    -0.01092301    0.00392745    0.00101208

     Total force =     0.023291     Total SCF correction =     0.000049


     Computing stress (Cartesian axis) and pressure

          total   stress  (Ry/bohr**3)                   (kbar)     P=       -1.36
  -0.00001479   0.00006877   0.00000872           -2.18       10.12        1.28
   0.00006877   0.00008890  -0.00001402           10.12       13.08       -2.06
   0.00000872  -0.00001402  -0.00010178            1.28       -2.06      -14.97


     number of scf cycles    =   6
     number of bfgs steps    =   5

     enthalpy old            =     -90.7707264937 Ry
     enthalpy new            =     -90.7730908764 Ry

     CASE: enthalpy_new < enthalpy_old

     new trust radius        =       0.1791910779 bohr
     new conv_thr            =       0.0000000011 Ry

     new unit-cell volume =    541.41766 a.u.^3 (    80.22982 Ang^3 )
     density =      1.98694 g/cm^3

CELL_PARAMETERS (bohr)
  14.293203139  -0.978314482   1.123920335
  -0.416157517   8.310867420   0.026164429
   0.404768087   0.041551186   4.605808577

ATOMIC_POSITIONS (crystal)
C             0.7258859072        0.2117792938        0.9405444165
C             0.8077707087        1.1318302164        0.3997848489
C             0.1893528935        0.7423703641        0.7082576038
C             0.5710999187        0.3653960257        1.0171040494
C             0.1075836234       -0.1652788913        0.2494580389
C             0.4891832221        0.4452870277        0.5578751369
C             0.3357771125        0.5871762616        0.6350068131
C             0.9611026140        0.9897097021        0.3227220926



     Writing output data file ./pp.save/
     NEW-OLD atomic charge density approx. for the potential
     extrapolated charge   33.28978, renormalised to   32.00000

     total cpu time spent up to now is      115.6 secs

     Self-consistent Calculation

     iteration #  1     ecut=    40.00 Ry     beta= 0.50
     Davidson diagonalization with overlap
     ethr =  1.00E-06,  avg # of iterations = 10.2

     total cpu time spent up to now is      125.5 secs

     total energy              =     -90.73047981 Ry
     Harris-Foulkes estimate   =     -89.72637053 Ry
     estimated scf accuracy    <       0.02102029 Ry

     iteration #  2     ecut=    40.00 Ry     beta= 0.50
     Davidson diagonalization with overlap
     ethr =  6.57E-05,  avg # of iterations =  4.0

     total cpu time spent up to now is      130.4 secs

     total energy              =     -90.77653961 Ry
     Harris-Foulkes estimate   =     -90.78606783 Ry
     estimated scf accuracy    <       0.02998986 Ry

     iteration #  3     ecut=    40.00 Ry     beta= 0.50
     Davidson diagonalization with overlap
     ethr =  6.57E-05,  avg # of iterations =  1.4

     total cpu time spent up to now is      132.8 secs

     total energy              =     -90.77738311 Ry
     Harris-Foulkes estimate   =     -90.77891486 Ry
     estimated scf accuracy    <       0.00875993 Ry

     iteration #  4     ecut=    40.00 Ry     beta= 0.50
     Davidson diagonalization with overlap
     ethr =  2.74E-05,  avg # of iterations =  1.0

     total cpu time spent up to now is      134.9 secs

     total energy              =     -90.77515243 Ry
     Harris-Foulkes estimate   =     -90.77771967 Ry
     estimated scf accuracy    <       0.00604926 Ry

     iteration #  5     ecut=    40.00 Ry     beta= 0.50
     Davidson diagonalization with overlap
     ethr =  1.89E-05,  avg # of iterations =  2.1

     total cpu time spent up to now is      137.8 secs

     total energy              =     -90.77503697 Ry
     Harris-Foulkes estimate   =     -90.77556913 Ry
     estimated scf accuracy    <       0.00086449 Ry

     iteration #  6     ecut=    40.00 Ry     beta= 0.50
     Davidson diagonalization with overlap
     ethr =  2.70E-06,  avg # of iterations =  4.1

     total cpu time spent up to now is      142.6 secs

     total energy              =     -90.77525999 Ry
     Harris-Foulkes estimate   =     -90.77527146 Ry
     estimated scf accuracy    <       0.00005414 Ry

     iteration #  7     ecut=    40.00 Ry     beta= 0.50
     Davidson diagonalization with overlap
     ethr =  1.69E-07,  avg # of iterations =  1.6

     total cpu time spent up to now is      145.3 secs

     total energy              =     -90.77525434 Ry
     Harris-Foulkes estimate   =     -90.77526420 Ry
     estimated scf accuracy    <       0.00002218 Ry

     iteration #  8     ecut=    40.00 Ry     beta= 0.50
     Davidson diagonalization with overlap
     ethr =  6.93E-08,  avg # of iterations =  2.1

     total cpu time spent up to now is      148.4 secs

     total energy              =     -90.77525775 Ry
     Harris-Foulkes estimate   =     -90.77525794 Ry
     estimated scf accuracy    <       0.00000058 Ry

     iteration #  9     ecut=    40.00 Ry     beta= 0.50
     Davidson diagonalization with overlap
     ethr =  1.81E-09,  avg # of iterations =  3.0

     total cpu time spent up to now is      152.6 secs

     total energy              =     -90.77525807 Ry
     Harris-Foulkes estimate   =     -90.77525803 Ry
     estimated scf accuracy    <       0.00000021 Ry

     iteration # 10     ecut=    40.00 Ry     beta= 0.50
     Davidson diagonalization with overlap
     ethr =  6.47E-10,  avg # of iterations =  1.4

     total cpu time spent up to now is      155.2 secs

     total energy              =     -90.77525797 Ry
     Harris-Foulkes estimate   =     -90.77525808 Ry
     estimated scf accuracy    <       0.00000024 Ry

     iteration # 11     ecut=    40.00 Ry     beta= 0.50
     Davidson diagonalization with overlap
     ethr =  6.47E-10,  avg # of iterations =  2.0

     total cpu time spent up to now is      158.4 secs

     total energy              =     -90.77525800 Ry
     Harris-Foulkes estimate   =     -90.77525801 Ry
     estimated scf accuracy    <          5.3E-09 Ry

     iteration # 12     ecut=    40.00 Ry     beta= 0.50
     Davidson diagonalization with overlap
     ethr =  1.66E-11,  avg # of iterations =  3.1

     total cpu time spent up to now is      162.9 secs

     End of self-consistent calculation

          k = 0.0000 0.0000 0.0000 (  2059 PWs)   bands (ev):

   -13.6558 -12.6140 -11.9103  -8.4873  -8.2018  -3.7633  -2.6719  -1.0701
    -0.5229  -0.0350  -0.0165   0.5883   0.7373   1.7112   3.9083   4.7908
     7.8262   9.6483   9.9877  11.7590

          k =-0.0489-0.0044 0.6174 (  2084 PWs)   bands (ev):

   -12.9324 -11.9723 -11.1657  -8.2052  -7.3932  -3.7754  -2.6985  -2.3694
    -1.7687  -0.6566  -0.2940  -0.0709   0.2319   0.7727   4.1715   5.3363
     5.5282   7.2803  10.6537  10.7584

          k =-0.0977-0.0088 1.2349 (  2083 PWs)   bands (ev):

   -10.8390 -10.1023  -9.1876  -7.8725  -7.1524  -5.5946  -5.2517  -4.4861
    -3.3109  -2.3145  -1.8294   1.7036   2.0624   2.7332   3.3487   4.1907
     4.5933   5.9054   8.3014   9.9535

          k = 0.0396 0.5683-0.0086 (  2095 PWs)   bands (ev):

   -13.4919 -12.8606 -11.5410  -9.5816  -6.9647  -4.9530  -1.7367  -1.5943
    -1.4160  -0.0413   0.2105   0.8735   1.3481   1.5837   3.5089   6.4879
     8.1001   9.5440  10.1525  11.7418

          k =-0.0093 0.5639 0.6088 (  2063 PWs)   bands (ev):

   -12.7493 -12.2499 -10.7279  -9.1693  -6.1912  -4.9842  -2.5798  -1.6096
    -1.5606  -1.0484  -0.8071  -0.4684  -0.4360   2.1858   3.5828   5.6314
     6.9083   7.3945   9.1772  12.2367

          k =-0.0581 0.5595 1.2263 (  2069 PWs)   bands (ev):

   -10.6639 -10.3223  -8.7398  -8.3473  -6.9529  -5.7831  -5.4625  -3.8221
    -3.6368  -2.2759  -2.0014   1.0163   1.7147   3.1861   3.3391   4.3500
     4.4151   6.4236   8.2660  10.5922

          k = 0.1373 0.5771-1.2435 (  2059 PWs)   bands (ev):

   -10.7781  -9.9706  -9.3577  -7.7488  -7.2534  -5.5168  -5.2674  -4.6354
    -3.3466  -2.2754  -1.8168   1.0384   1.7343   2.9822   3.3755   4.0752
     5.0445   5.9276   8.6443  10.1424

          k = 0.0884 0.5727-0.6260 (  2069 PWs)   bands (ev):

   -12.8117 -12.0615 -11.0327  -8.7302  -6.8891  -4.2828  -2.5794  -2.0478
    -1.6893  -0.9641  -0.7291  -0.5647  -0.1843   1.9089   4.2748   5.4341
     6.4556   7.1382  10.1391  12.2706

          k =-0.4991-0.0251 0.0441 (  2064 PWs)   bands (ev):

   -13.5053 -13.0693 -11.2786  -9.7099  -6.5519  -5.3458  -1.3077  -1.0858
    -0.7302  -0.0689  -0.0116   0.6058   0.9290   1.5390   2.4016   6.9621
     8.2556   9.1997   9.3761  10.6078

          k =-0.5480-0.0295 0.6615 (  2076 PWs)   bands (ev):

   -12.8147 -12.3271 -10.6666  -9.0484  -6.2685  -4.8723  -2.6111  -1.6673
    -1.5696  -0.7966  -0.4116  -0.2870   0.0126   1.3501   2.9964   5.6284
     6.9784   7.1957   9.0377  11.2425

          k =-0.5968-0.0339 1.2790 (  2074 PWs)   bands (ev):

   -10.7945 -10.2363  -8.9816  -8.0662  -7.0405  -5.6947  -5.3396  -4.2314
    -3.3536  -2.3374  -1.8802   1.7407   1.9215   3.0022   3.2816   4.2369
     4.3238   6.1173   8.2040  10.1292

          k =-0.4595 0.5432 0.0355 (  2079 PWs)   bands (ev):

   -13.5035 -12.7786 -11.7483  -9.0720  -7.7228  -4.1815  -2.2307  -2.1452
    -0.3364  -0.0208   0.2816   0.4860   0.7937   1.6599   4.0806   6.2655
     7.8860   9.8572  10.4708  11.0477

          k =-0.5084 0.5388 0.6529 (  2078 PWs)   bands (ev):

   -12.8230 -11.9744 -11.2067  -8.1632  -7.5858  -3.6686  -2.7387  -2.3784
    -1.7541  -1.2868  -0.6719  -0.0489   0.3022   1.0735   4.8775   5.2929
     6.0430   7.2832  10.6610  11.7370

          k =-0.5572 0.5344 1.2704 (  2057 PWs)   bands (ev):

   -10.7875  -9.9088  -9.4499  -7.6143  -7.3492  -5.3860  -5.3112  -4.7497
    -3.3641  -2.2229  -1.8149   0.9727   1.9769   2.7806   3.4318   3.9950
     5.1675   5.7396   8.8422  10.0326

          k =-0.3618 0.5520-1.1994 (  2074 PWs)   bands (ev):

   -10.6742 -10.2870  -8.8811  -8.2046  -6.9862  -5.7629  -5.4205  -4.0898
    -3.4348  -2.3268  -1.9327   0.9165   1.8921   3.1479   3.2357   4.3268
     4.5235   6.3037   8.4224  10.5230

          k =-0.4107 0.5476-0.5820 (  2070 PWs)   bands (ev):

   -12.7621 -12.1858 -10.9116  -8.8205  -6.8092  -4.3720  -2.5830  -1.9679
    -1.6485  -1.3342  -0.7601  -0.2244   0.2789   1.2842   4.1737   5.4635
     7.0356   7.1278   9.5730  11.9747

     the Fermi energy is     5.4205 ev

!    total energy              =     -90.77525801 Ry
     Harris-Foulkes estimate   =     -90.77525801 Ry
     estimated scf accuracy    <          8.1E-10 Ry

     The total energy is the sum of the following terms:

     one-electron contribution =     -33.77279417 Ry
     hartree contribution      =      30.96317788 Ry
     xc contribution           =     -27.66006060 Ry
     ewald contribution        =     -60.30434135 Ry
     smearing contrib. (-TS)   =      -0.00123976 Ry

     convergence has been achieved in  12 iterations

     Forces acting on atoms (cartesian axes, Ry/au):

     atom    1 type  1   force =    -0.00706606    0.00664031    0.00167216
     atom    2 type  1   force =    -0.00101988    0.00556300   -0.00196259
     atom    3 type  1   force =     0.00246625    0.00628055   -0.00081494
     atom    4 type  1   force =     0.00701871   -0.00664045   -0.00166796
[...]
     Davidson diagonalization with overlap
     ethr =  1.25E-08,  avg # of iterations =  2.9

     total cpu time spent up to now is     2292.5 secs

     total energy              =     -90.77761702 Ry
     Harris-Foulkes estimate   =     -90.77761736 Ry
     estimated scf accuracy    <       0.00000115 Ry

     iteration #  7     ecut=    40.00 Ry     beta= 0.50
     Davidson diagonalization with overlap
     ethr =  3.58E-09,  avg # of iterations =  1.1

     total cpu time spent up to now is     2303.2 secs

     total energy              =     -90.77761692 Ry
     Harris-Foulkes estimate   =     -90.77761713 Ry
     estimated scf accuracy    <       0.00000046 Ry

     iteration #  8     ecut=    40.00 Ry     beta= 0.50
     Davidson diagonalization with overlap
     ethr =  1.42E-09,  avg # of iterations =  2.2

     total cpu time spent up to now is     2318.7 secs

     total energy              =     -90.77761701 Ry
     Harris-Foulkes estimate   =     -90.77761703 Ry
     estimated scf accuracy    <       0.00000005 Ry

     iteration #  9     ecut=    40.00 Ry     beta= 0.50
     Davidson diagonalization with overlap
     ethr =  1.51E-10,  avg # of iterations =  2.1

     total cpu time spent up to now is     2332.7 secs

     total energy              =     -90.77761702 Ry
     Harris-Foulkes estimate   =     -90.77761702 Ry
     estimated scf accuracy    <       0.00000001 Ry

     iteration # 10     ecut=    40.00 Ry     beta= 0.50
     Davidson diagonalization with overlap
     ethr =  3.25E-11,  avg # of iterations =  2.1

     total cpu time spent up to now is     2346.9 secs

     End of self-consistent calculation

          k = 0.0000 0.0000 0.0000 (  2059 PWs)   bands (ev):

   -13.9235 -12.8861 -12.1591  -8.7854  -8.5134  -4.0444  -2.9666  -1.4432
    -0.9459  -0.3909  -0.2734   0.2835   0.4720   1.4589   3.8627   4.6733
     7.5536   9.2264   9.7182  11.6432

          k =-0.0736-0.0295 0.6295 (  2084 PWs)   bands (ev):

   -13.1958 -12.2481 -11.4154  -8.4895  -7.7128  -4.0515  -2.9834  -2.6344
    -2.0418  -0.9160  -0.7079  -0.3601  -0.1238   0.3916   4.0065   5.0587
     5.5083   6.9977  10.3755  10.5731

          k =-0.1472-0.0590 1.2590 (  2083 PWs)   bands (ev):

   -11.0918 -10.3802  -9.4434  -8.1245  -7.4500  -5.8596  -5.5349  -4.7821
    -3.6032  -2.5812  -2.1296   1.1981   1.9070   2.2815   3.0461   3.8916
     4.2884   5.8002   8.1178   9.6588

          k = 0.0457 0.5277-0.0445 (  2095 PWs)   bands (ev):

   -13.7818 -13.1577 -11.7958  -9.8654  -7.2344  -5.2077  -1.9544  -1.8859
    -1.6005  -0.3095  -0.0919   0.5959   0.9658   1.3427   3.3290   6.0655
     7.8464   9.2760   9.6083  10.9821

          k =-0.0279 0.4981 0.5850 (  2063 PWs)   bands (ev):

   -13.0495 -12.5431 -10.9778  -9.4355  -6.4668  -5.2460  -2.8490  -1.8788
    -1.8554  -1.2466  -1.0591  -0.7394  -0.5651   1.7529   3.2292   5.3635
     6.6396   6.9928   8.8449  11.1584

          k =-0.1015 0.4686 1.2145 (  2069 PWs)   bands (ev):

   -10.9657 -10.6134  -8.9872  -8.5986  -7.2391  -6.0503  -5.7321  -4.0963
    -3.9105  -2.5767  -2.2640   0.8680   1.6384   2.9100   2.9488   3.8676
     4.1137   6.2404   8.0303  10.1138

          k = 0.1929 0.5867-1.3035 (  2059 PWs)   bands (ev):

   -11.0397 -10.2852  -9.6103  -8.0543  -7.5217  -5.7825  -5.5277  -4.9172
    -3.6074  -2.5543  -2.0917   0.6212   1.7236   2.7198   3.1180   3.7850
     4.8374   5.6973   8.2171   9.7600

          k = 0.1193 0.5572-0.6740 (  2069 PWs)   bands (ev):

   -13.0866 -12.3677 -11.2895  -9.0204  -7.1558  -4.5384  -2.8631  -2.3280
    -1.9702  -1.3199  -0.9779  -0.6589  -0.4747   1.5694   4.1727   5.1811
     6.0976   6.8506   9.5987  12.0658

          k =-0.5189-0.0228 0.0691 (  2064 PWs)   bands (ev):

   -13.7799 -13.3197 -11.5541  -9.9940  -6.8559  -5.6552  -1.5702  -1.4680
    -1.1743  -0.3233  -0.2984   0.3285   0.6466   1.2991   2.1484   6.9429
     7.9905   9.0939   9.2317  10.4594

          k =-0.5925-0.0523 0.6986 (  2076 PWs)   bands (ev):

   -13.0905 -12.5724 -10.9417  -9.3375  -6.5605  -5.1797  -2.8701  -1.9436
    -1.8374  -1.0600  -0.7048  -0.6972  -0.4178   1.1132   2.7814   5.3380
     6.6910   7.0887   8.9802  10.6822

          k =-0.6661-0.0818 1.3281 (  2074 PWs)   bands (ev):

   -11.0667 -10.4755  -9.2489  -8.3571  -7.2981  -5.9675  -5.6331  -4.5131
    -3.6418  -2.6425  -2.1502   1.3154   1.4854   2.7810   2.9868   4.0011
     4.0779   5.7420   8.0953  10.0040

          k =-0.4733 0.5049 0.0246 (  2079 PWs)   bands (ev):

   -13.7966 -13.0595 -12.0336  -9.3230  -7.9958  -4.4656  -2.5014  -2.3789
    -0.5552  -0.2859   0.1279   0.1738   0.5123   1.4210   3.5467   5.9498
     7.6346   9.5827  10.2936  10.3673

          k =-0.5468 0.4753 0.6541 (  2078 PWs)   bands (ev):

   -13.1261 -12.2586 -11.4735  -8.4068  -7.8599  -3.9521  -3.0174  -2.6436
    -2.0362  -1.4139  -0.9295  -0.3422   0.0807   0.7845   4.2778   5.0257
     5.7685   7.0102  10.5067  11.4086

          k =-0.6204 0.4458 1.2836 (  2057 PWs)   bands (ev):

   -11.0973 -10.1900  -9.6998  -7.8889  -7.6030  -5.6617  -5.5862  -5.0186
    -3.6477  -2.4880  -2.1016   0.9519   1.6995   2.4311   3.1420   3.7312
     4.7754   5.3578   8.7211   9.7519

          k =-0.3261 0.5639-1.2345 (  2074 PWs)   bands (ev):

   -10.9577 -10.5450  -9.1891  -8.4806  -7.2628  -6.0141  -5.7079  -4.3493
    -3.7122  -2.5894  -2.2176   0.6782   1.4751   2.9570   3.1961   4.0529
     4.3292   5.9270   8.0300  10.2835

          k =-0.3997 0.5344-0.6049 (  2070 PWs)   bands (ev):

   -13.0490 -12.4565 -11.2092  -9.0831  -7.0790  -4.6411  -2.8711  -2.2364
    -1.9372  -1.6086  -0.9924  -0.5239  -0.0537   1.2840   3.8028   5.2202
     6.6486   6.8204   9.2922  11.5690

     the Fermi energy is     5.1621 ev

!    total energy              =     -90.77761702 Ry
     Harris-Foulkes estimate   =     -90.77761702 Ry
     estimated scf accuracy    <          8.4E-11 Ry

     The total energy is the sum of the following terms:

     one-electron contribution =     -38.41765202 Ry
     hartree contribution      =      32.95680975 Ry
     xc contribution           =     -27.65542122 Ry
     ewald contribution        =     -57.66035622 Ry
     smearing contrib. (-TS)   =      -0.00099732 Ry

     convergence has been achieved in  10 iterations

     Forces acting on atoms (cartesian axes, Ry/au):

     atom    1 type  1   force =    -0.00057007    0.00066566   -0.00206117
     atom    2 type  1   force =    -0.00116200    0.00093301   -0.00315476
     atom    3 type  1   force =     0.00117987   -0.00081393   -0.00016538
     atom    4 type  1   force =     0.00071867   -0.00067301    0.00219372
     atom    5 type  1   force =    -0.00164370    0.00112908    0.00005474
     atom    6 type  1   force =     0.00060862   -0.00061638    0.00332464
     atom    7 type  1   force =     0.00154546   -0.00155101   -0.00034072
     atom    8 type  1   force =    -0.00067685    0.00092656    0.00014892

     Total force =     0.006862     Total SCF correction =     0.000005


     Computing stress (Cartesian axis) and pressure

          total   stress  (Ry/bohr**3)                   (kbar)     P=        0.93
   0.00000516   0.00000061   0.00000562            0.76        0.09        0.83
   0.00000061  -0.00000099   0.00000335            0.09       -0.15        0.49
   0.00000562   0.00000335   0.00001489            0.83        0.49        2.19


     number of scf cycles    =  30
     number of bfgs steps    =  29

     enthalpy old            =     -90.7775052179 Ry
     enthalpy new            =     -90.7775791718 Ry

     CASE: enthalpy_new < enthalpy_old

     new trust radius        =       0.0218920416 bohr
     new conv_thr            =            1.0E-10 Ry

     new unit-cell volume =    555.39718 a.u.^3 (    82.30137 Ang^3 )
     density =      1.93693 g/cm^3

CELL_PARAMETERS (bohr)
  13.839306614  -1.080296263   1.604444841
  -0.349352094   8.990262842   0.405254046
   0.607932426   0.353638191   4.567934881

ATOMIC_POSITIONS (crystal)
C             0.7244754385        0.2101217547        0.9434513607
C             0.8054639854        1.1276153710        0.4026514421
C             0.1910875146        0.7466016989        0.7067078827
C             0.5724868557        0.3669883608        1.0139835230
C             0.1057844341       -0.1697048868        0.2513618729
C             0.4915220169        0.4495370860        0.5547749891
C             0.3414445389        0.6002722518        0.6316139640
C             0.9554912159        0.9768383634        0.3262079653



     Writing output data file ./pp.save/
     NEW-OLD atomic charge density approx. for the potential
     extrapolated charge   31.92208, renormalised to   32.00000

     total cpu time spent up to now is     2347.5 secs

     Self-consistent Calculation

     iteration #  1     ecut=    40.00 Ry     beta= 0.50
     Davidson diagonalization with overlap
     ethr =  1.00E-06,  avg # of iterations =  5.1

     total cpu time spent up to now is     2377.6 secs

     total energy              =     -90.77748281 Ry
     Harris-Foulkes estimate   =     -90.84958598 Ry
     estimated scf accuracy    <       0.00025189 Ry

     iteration #  2     ecut=    40.00 Ry     beta= 0.50
     Davidson diagonalization with overlap
     ethr =  7.87E-07,  avg # of iterations =  2.7

     total cpu time spent up to now is     2395.6 secs

     total energy              =     -90.77766308 Ry
     Harris-Foulkes estimate   =     -90.77772658 Ry
     estimated scf accuracy    <       0.00016653 Ry

     iteration #  3     ecut=    40.00 Ry     beta= 0.50
     Davidson diagonalization with overlap
     ethr =  5.20E-07,  avg # of iterations =  2.0

     total cpu time spent up to now is     2413.4 secs

     total energy              =     -90.77767912 Ry
     Harris-Foulkes estimate   =     -90.77769183 Ry
     estimated scf accuracy    <       0.00003659 Ry

     iteration #  4     ecut=    40.00 Ry     beta= 0.50
     Davidson diagonalization with overlap
     ethr =  1.14E-07,  avg # of iterations =  1.9

     total cpu time spent up to now is     2427.1 secs

     total energy              =     -90.77768094 Ry
     Harris-Foulkes estimate   =     -90.77768541 Ry
     estimated scf accuracy    <       0.00001289 Ry

     iteration #  5     ecut=    40.00 Ry     beta= 0.50
     Davidson diagonalization with overlap
     ethr =  4.03E-08,  avg # of iterations =  2.0

     total cpu time spent up to now is     2441.3 secs

     total energy              =     -90.77768282 Ry
     Harris-Foulkes estimate   =     -90.77768296 Ry
     estimated scf accuracy    <       0.00000067 Ry

     iteration #  6     ecut=    40.00 Ry     beta= 0.50
     Davidson diagonalization with overlap
     ethr =  2.09E-09,  avg # of iterations =  2.2

     total cpu time spent up to now is     2457.5 secs

     total energy              =     -90.77768296 Ry
     Harris-Foulkes estimate   =     -90.77768306 Ry
     estimated scf accuracy    <       0.00000034 Ry

     iteration #  7     ecut=    40.00 Ry     beta= 0.50
     Davidson diagonalization with overlap
     ethr =  1.07E-09,  avg # of iterations =  1.5

     total cpu time spent up to now is     2470.0 secs

     total energy              =     -90.77768298 Ry
     Harris-Foulkes estimate   =     -90.77768302 Ry
     estimated scf accuracy    <       0.00000012 Ry

     iteration #  8     ecut=    40.00 Ry     beta= 0.50
     Davidson diagonalization with overlap
     ethr =  3.72E-10,  avg # of iterations =  2.0

     total cpu time spent up to now is     2484.5 secs

     total energy              =     -90.77768300 Ry
     Harris-Foulkes estimate   =     -90.77768301 Ry
     estimated scf accuracy    <          4.9E-09 Ry

     iteration #  9     ecut=    40.00 Ry     beta= 0.50
     Davidson diagonalization with overlap
     ethr =  1.52E-11,  avg # of iterations =  2.1

     total cpu time spent up to now is     2500.4 secs

     total energy              =     -90.77768300 Ry
     Harris-Foulkes estimate   =     -90.77768300 Ry
     estimated scf accuracy    <          7.6E-10 Ry

     iteration # 10     ecut=    40.00 Ry     beta= 0.50
     Davidson diagonalization with overlap
     ethr =  2.38E-12,  avg # of iterations =  2.0

     total cpu time spent up to now is     2515.9 secs

     End of self-consistent calculation

          k = 0.0000 0.0000 0.0000 (  2059 PWs)   bands (ev):

   -13.9034 -12.8562 -12.1356  -8.7575  -8.4932  -4.0181  -2.9471  -1.4198
    -0.9206  -0.3716  -0.2588   0.3070   0.5090   1.4800   3.8828   4.7042
     7.5745   9.2626   9.7418  11.6796

          k =-0.0756-0.0314 0.6307 (  2084 PWs)   bands (ev):

   -13.1753 -12.2200 -11.3909  -8.4644  -7.6905  -4.0273  -2.9650  -2.6146
    -2.0075  -0.8935  -0.6868  -0.3367  -0.0969   0.4106   4.0215   5.0806
     5.5464   7.0208  10.4257  10.6051

          k =-0.1511-0.0627 1.2614 (  2083 PWs)   bands (ev):

   -11.0702 -10.3555  -9.4175  -8.1008  -7.4296  -5.8412  -5.5063  -4.7493
    -3.5850  -2.5633  -2.0994   1.2113   1.9428   2.2961   3.0689   3.9148
     4.3012   5.8349   8.1492   9.6772

          k = 0.0466 0.5274-0.0470 (  2095 PWs)   bands (ev):

   -13.7628 -13.1270 -11.7722  -9.8426  -7.2100  -5.1820  -1.9329  -1.8648
    -1.5774  -0.2945  -0.0673   0.6327   0.9944   1.3627   3.3627   6.0820
     7.8691   9.2987   9.6257  11.0249

          k =-0.0289 0.4961 0.5836 (  2063 PWs)   bands (ev):

   -13.0320 -12.5128 -10.9527  -9.4120  -6.4432  -5.2217  -2.8321  -1.8424
    -1.8358  -1.2290  -1.0376  -0.7153  -0.5270   1.7709   3.2490   5.3861
     6.6654   7.0116   8.8725  11.1720

          k =-0.1045 0.4647 1.2143 (  2069 PWs)   bands (ev):

   -10.9490 -10.5846  -8.9617  -8.5742  -7.2186  -6.0277  -5.7039  -4.0795
    -3.8768  -2.5535  -2.2418   0.8927   1.6771   2.9321   2.9589   3.8774
     4.1390   6.2718   8.0611  10.1241

          k = 0.1978 0.5902-1.3084 (  2059 PWs)   bands (ev):

   -11.0179 -10.2576  -9.5890  -8.0351  -7.4956  -5.7580  -5.5046  -4.8938
    -3.5786  -2.5233  -2.0762   0.6294   1.7620   2.7479   3.1427   3.8092
     4.8625   5.7242   8.2320   9.7729

          k = 0.1222 0.5588-0.6777 (  2069 PWs)   bands (ev):

   -13.0660 -12.3380 -11.2673  -8.9970  -7.1333  -4.5123  -2.8477  -2.3069
    -1.9336  -1.3053  -0.9541  -0.6327  -0.4537   1.6020   4.2097   5.2068
     6.1159   6.8736   9.6122  12.0959

          k =-0.5202-0.0234 0.0710 (  2064 PWs)   bands (ev):

   -13.7611 -13.2906 -11.5285  -9.9685  -6.8337  -5.6308  -1.5493  -1.4533
    -1.1372  -0.3069  -0.2728   0.3475   0.6836   1.3177   2.1616   6.9808
     8.0130   9.1155   9.2639  10.4918

          k =-0.5957-0.0548 0.7017 (  2076 PWs)   bands (ev):

   -13.0720 -12.5426 -10.9172  -9.3125  -6.5385  -5.1553  -2.8525  -1.9231
    -1.8003  -1.0385  -0.6937  -0.6776  -0.3792   1.1346   2.8011   5.3601
     6.7176   7.1129   9.0130  10.7069

          k =-0.6713-0.0861 1.3324 (  2074 PWs)   bands (ev):

   -11.0479 -10.4451  -9.2267  -8.3356  -7.2728  -5.9437  -5.6094  -4.4939
    -3.6098  -2.6135  -2.1341   1.3235   1.5137   2.8076   3.0079   4.0255
     4.1075   5.7563   8.1297  10.0469

          k =-0.4736 0.5040 0.0240 (  2079 PWs)   bands (ev):

   -13.7758 -13.0314 -12.0098  -9.2978  -7.9734  -4.4401  -2.4791  -2.3615
    -0.5206  -0.2713   0.1530   0.1978   0.5482   1.4426   3.5659   5.9769
     7.6574   9.6052  10.3219  10.3958

          k =-0.5491 0.4727 0.6547 (  2078 PWs)   bands (ev):

   -13.1063 -12.2298 -11.4498  -8.3791  -7.8396  -3.9270  -2.9994  -2.6247
    -2.0008  -1.3857  -0.9063  -0.3202   0.1002   0.8119   4.2901   5.0471
     5.7986   7.0346  10.5373  11.4336

          k =-0.6247 0.4413 1.2854 (  2057 PWs)   bands (ev):

   -11.0785 -10.1612  -9.6761  -7.8704  -7.5753  -5.6435  -5.5623  -4.9845
    -3.6264  -2.4639  -2.0781   0.9923   1.7112   2.4500   3.1644   3.7561
     4.7920   5.3796   8.7559   9.7770

          k =-0.3224 0.5668-1.2374 (  2074 PWs)   bands (ev):

   -10.9388 -10.5149  -9.1660  -8.4602  -7.2416  -5.9923  -5.6798  -4.3147
    -3.6949  -2.5739  -2.1859   0.6991   1.4868   2.9833   3.2363   4.0746
     4.3678   5.9381   8.0456  10.3011

          k =-0.3980 0.5354-0.6067 (  2070 PWs)   bands (ev):

   -13.0287 -12.4272 -11.1859  -9.0609  -7.0546  -4.6164  -2.8549  -2.2129
    -1.9051  -1.5941  -0.9695  -0.4998  -0.0284   1.3213   3.8335   5.2453
     6.6673   6.8428   9.3072  11.6211

     the Fermi energy is     5.1853 ev

!    total energy              =     -90.77768300 Ry
     Harris-Foulkes estimate   =     -90.77768300 Ry
     estimated scf accuracy    <          4.5E-11 Ry

     The total energy is the sum of the following terms:

     one-electron contribution =     -37.99228933 Ry
     hartree contribution      =      32.77236840 Ry
     xc contribution           =     -27.65574503 Ry
     ewald contribution        =     -57.90103888 Ry
     smearing contrib. (-TS)   =      -0.00097816 Ry

     convergence has been achieved in  10 iterations

     Forces acting on atoms (cartesian axes, Ry/au):

     atom    1 type  1   force =    -0.00008818    0.00028611   -0.00194482
     atom    2 type  1   force =    -0.00053110    0.00035497   -0.00293263
     atom    3 type  1   force =     0.00032579   -0.00016056   -0.00038110
     atom    4 type  1   force =     0.00018177   -0.00018930    0.00204589
     atom    5 type  1   force =    -0.00058826    0.00046024    0.00027866
     atom    6 type  1   force =     0.00026040   -0.00030603    0.00306777
     atom    7 type  1   force =     0.00038227   -0.00053382   -0.00144098
     atom    8 type  1   force =     0.00005732    0.00008841    0.00130721

     Total force =     0.005643     Total SCF correction =     0.000013


     Computing stress (Cartesian axis) and pressure

          total   stress  (Ry/bohr**3)                   (kbar)     P=        0.86
   0.00000573  -0.00000037   0.00000104            0.84       -0.05        0.15
  -0.00000037   0.00000026   0.00000454           -0.05        0.04        0.67
   0.00000104   0.00000454   0.00001152            0.15        0.67        1.69


     number of scf cycles    =  31
     number of bfgs steps    =  30

     enthalpy old            =     -90.7775791718 Ry
     enthalpy new            =     -90.7776452497 Ry

     CASE: enthalpy_new < enthalpy_old

     new trust radius        =       0.0146862203 bohr
     new conv_thr            =            1.0E-10 Ry

     new unit-cell volume =    554.64665 a.u.^3 (    82.19015 Ang^3 )
     density =      1.93955 g/cm^3

CELL_PARAMETERS (bohr)
  13.827041274  -1.088883911   1.627183925
  -0.353270328   8.995049144   0.421520102
   0.617288292   0.366675221   4.567398597

ATOMIC_POSITIONS (crystal)
C             0.7246571228        0.2106352682        0.9422947869
C             0.8057562789        1.1284959035        0.4008876563
C             0.1910246926        0.7463067957        0.7067316948
C             0.5723088849        0.3664995447        1.0152179273
C             0.1058100270       -0.1694498678        0.2512803246
C             0.4912309312        0.4486601858        0.5566015683
C             0.3410635080        0.5991632634        0.6328666496
C             0.9559045546        0.9779589066        0.3248723923



     Writing output data file ./pp.save/
     NEW-OLD atomic charge density approx. for the potential
     extrapolated charge   31.95670, renormalised to   32.00000

     total cpu time spent up to now is     2516.5 secs

     Self-consistent Calculation

     iteration #  1     ecut=    40.00 Ry     beta= 0.50
     Davidson diagonalization with overlap
     ethr =  1.00E-06,  avg # of iterations =  4.0

     total cpu time spent up to now is     2545.2 secs

     total energy              =     -90.77766715 Ry
     Harris-Foulkes estimate   =     -90.81731941 Ry
     estimated scf accuracy    <       0.00008468 Ry

     iteration #  2     ecut=    40.00 Ry     beta= 0.50
     Davidson diagonalization with overlap
