
     Program PWSCF v.6.5 starts on  6Jul2022 at 20: 2:25 

     This program is part of the open-source Quantum ESPRESSO suite
     for quantum simulation of materials; please cite
         "P. Giannozzi et al., J. Phys.:Condens. Matter 21 395502 (2009);
         "P. Giannozzi et al., J. Phys.:Condens. Matter 29 465901 (2017);
          URL http://www.quantum-espresso.org", 
     in publications or presentations arising from this work. More details at
     http://www.quantum-espresso.org/quote

     Parallel version (MPI), running on    96 processors

     MPI processes distributed on     2 nodes
     R & G space division:  proc/nbgrp/npool/nimage =      96
     Waiting for input...
     Reading input from standard input
     Message from routine read_cards :
     DEPRECATED: no units specified in CELL_PARAMETERS card

     Current dimensions of program PWSCF are:
     Max number of different atomic species (ntypx) = 10
     Max number of k-points (npk) =  40000
     Max angular momentum in pseudopotentials (lmaxx) =  3

     Subspace diagonalization in iterative solution of the eigenvalue problem:
     one sub-group per band group will be used
     scalapack distributed-memory algorithm (size of sub-group:  9*  9 procs)

 
     Parallelization info
     --------------------
     sticks:   dense  smooth     PW     G-vecs:    dense   smooth      PW
     Min          12      12      4                  128      128      22
     Max          13      13      5                  131      131      24
     Sum        1229    1229    401                12379    12379    2225
 


     bravais-lattice index     =            0
     lattice parameter (alat)  =       9.8511  a.u.
     unit-cell volume          =     362.2562 (a.u.)^3
     number of atoms/cell      =            8
     number of atomic types    =            1
     number of electrons       =        32.00
     number of Kohn-Sham states=           20
     kinetic-energy cutoff     =      40.0000  Ry
     charge density cutoff     =     160.0000  Ry
     convergence threshold     =      1.0E-06
     mixing beta               =       0.5000
     number of iterations used =            8  plain     mixing
     Exchange-correlation=  SLA  PW   PBE  PBE
                           (   1   4   3   4   0   0   0)
     nstep                     =          250


     celldm(1)=   9.851100  celldm(2)=   0.000000  celldm(3)=   0.000000
     celldm(4)=   0.000000  celldm(5)=   0.000000  celldm(6)=   0.000000

     crystal axes: (cart. coord. in units of alat)
               a(1) = (   1.000000   0.000000   0.000000 )  
               a(2) = (   0.000000   1.000000   0.000000 )  
               a(3) = (   0.000000   0.000000   0.378932 )  

     reciprocal axes: (cart. coord. in units 2 pi/alat)
               b(1) = (  1.000000  0.000000  0.000000 )  
               b(2) = (  0.000000  1.000000  0.000000 )  
               b(3) = (  0.000000  0.000000  2.638994 )  


     PseudoPot. # 1 for C  read from file:
     ./C.pbe-van_bm.upf
     MD5 check sum: 1a69bf6b8db32088f5b2163dbdb77a27
     Pseudo is Ultrasoft, Zval =  4.0
     Generated by new atomic code, or converted to UPF format
     Using radial grid of  721 points,  4 beta functions with: 
                l(1) =   0
                l(2) =   0
                l(3) =   1
                l(4) =   1
     Q(r) pseudized with  8 coefficients,  rinner =    0.800   0.800   0.800


     atomic species   valence    mass     pseudopotential
        C              4.00    12.00000     C ( 1.00)

     No symmetry found



   Cartesian axes

     site n.     atom                  positions (alat units)
         1           C   tau(   1) = (   0.7996270   0.0002240   0.0001523  )
         2           C   tau(   2) = (   0.5000460   0.7003070   0.1892464  )
         3           C   tau(   3) = (   0.2995520   0.4998430   0.1892892  )
         4           C   tau(   4) = (  -0.0001200   0.2009150   0.0002425  )
         5           C   tau(   5) = (   0.5002860   0.2995200   0.1896878  )
         6           C   tau(   6) = (   0.2000780  -0.0000360  -0.0001538  )
         7           C   tau(   7) = (  -0.0002910   0.7992270  -0.0002444  )
         8           C   tau(   8) = (   0.7008210   0.5000000   0.1896450  )

     number of k points=    12  Marzari-Vanderbilt smearing, width (Ry)=  0.0200
                       cart. coord. in units 2pi/alat
        k(    1) = (   0.0000000   0.0000000   0.0000000), wk =   0.1000000
        k(    2) = (   0.0000000   0.0000000   0.5277988), wk =   0.2000000
        k(    3) = (   0.0000000   0.0000000   1.0555975), wk =   0.2000000
        k(    4) = (   0.0000000  -0.5000000   0.0000000), wk =   0.1000000
        k(    5) = (   0.0000000  -0.5000000   0.5277988), wk =   0.2000000
        k(    6) = (   0.0000000  -0.5000000   1.0555975), wk =   0.2000000
        k(    7) = (  -0.5000000   0.0000000   0.0000000), wk =   0.1000000
        k(    8) = (  -0.5000000   0.0000000   0.5277988), wk =   0.2000000
        k(    9) = (  -0.5000000   0.0000000   1.0555975), wk =   0.2000000
        k(   10) = (  -0.5000000  -0.5000000   0.0000000), wk =   0.1000000
        k(   11) = (  -0.5000000  -0.5000000   0.5277988), wk =   0.2000000
        k(   12) = (  -0.5000000  -0.5000000   1.0555975), wk =   0.2000000

     Dense  grid:    12379 G-vectors     FFT dimensions: (  40,  40,  15)

     Estimated max dynamical RAM per process >       1.75 MB

     Estimated total dynamical RAM >     167.55 MB

     Initial potential from superposition of free atoms

     starting charge   31.99968, renormalised to   32.00000
     Starting wfcs are   32 randomized atomic wfcs

     total cpu time spent up to now is        0.6 secs

     Self-consistent Calculation

     iteration #  1     ecut=    40.00 Ry     beta= 0.50
     Davidson diagonalization with overlap
     ethr =  1.00E-02,  avg # of iterations =  2.0

     Threshold (ethr) on eigenvalues was too large:
     Diagonalizing with lowered threshold

     Davidson diagonalization with overlap
     ethr =  8.34E-04,  avg # of iterations =  1.0

     total cpu time spent up to now is        1.6 secs

     total energy              =     -89.46027424 Ry
     Harris-Foulkes estimate   =     -89.58375783 Ry
     estimated scf accuracy    <       0.26737861 Ry

     iteration #  2     ecut=    40.00 Ry     beta= 0.50
     Davidson diagonalization with overlap
     ethr =  8.36E-04,  avg # of iterations =  2.2

     total cpu time spent up to now is        2.2 secs

     total energy              =     -89.49136086 Ry
     Harris-Foulkes estimate   =     -89.49884894 Ry
     estimated scf accuracy    <       0.02612513 Ry

     iteration #  3     ecut=    40.00 Ry     beta= 0.50
     Davidson diagonalization with overlap
     ethr =  8.16E-05,  avg # of iterations =  1.8

     total cpu time spent up to now is        2.7 secs

     total energy              =     -89.49234262 Ry
     Harris-Foulkes estimate   =     -89.49320070 Ry
     estimated scf accuracy    <       0.00402338 Ry

     iteration #  4     ecut=    40.00 Ry     beta= 0.50
     Davidson diagonalization with overlap
     ethr =  1.26E-05,  avg # of iterations =  3.9

     total cpu time spent up to now is        3.5 secs

     total energy              =     -89.49282611 Ry
     Harris-Foulkes estimate   =     -89.49301090 Ry
     estimated scf accuracy    <       0.00058653 Ry

     iteration #  5     ecut=    40.00 Ry     beta= 0.50
     Davidson diagonalization with overlap
     ethr =  1.83E-06,  avg # of iterations =  3.8

     total cpu time spent up to now is        4.2 secs

     total energy              =     -89.49292942 Ry
     Harris-Foulkes estimate   =     -89.49296963 Ry
     estimated scf accuracy    <       0.00014134 Ry

     iteration #  6     ecut=    40.00 Ry     beta= 0.50
     Davidson diagonalization with overlap
     ethr =  4.42E-07,  avg # of iterations =  2.2

     total cpu time spent up to now is        4.8 secs

     total energy              =     -89.49294847 Ry
     Harris-Foulkes estimate   =     -89.49297379 Ry
     estimated scf accuracy    <       0.00010806 Ry

     iteration #  7     ecut=    40.00 Ry     beta= 0.50
     Davidson diagonalization with overlap
     ethr =  3.38E-07,  avg # of iterations =  1.8

     total cpu time spent up to now is        5.3 secs

     total energy              =     -89.49296077 Ry
     Harris-Foulkes estimate   =     -89.49296525 Ry
     estimated scf accuracy    <       0.00001098 Ry

     iteration #  8     ecut=    40.00 Ry     beta= 0.50
     Davidson diagonalization with overlap
     ethr =  3.43E-08,  avg # of iterations =  2.1

     total cpu time spent up to now is        5.8 secs

     total energy              =     -89.49296246 Ry
     Harris-Foulkes estimate   =     -89.49296283 Ry
     estimated scf accuracy    <       0.00000124 Ry

     iteration #  9     ecut=    40.00 Ry     beta= 0.50
     Davidson diagonalization with overlap
     ethr =  3.86E-09,  avg # of iterations =  2.2

     total cpu time spent up to now is        6.4 secs

     End of self-consistent calculation

          k = 0.0000 0.0000 0.0000 (  1551 PWs)   bands (ev):

   -11.0143  -9.9058  -4.3522  -4.3449  -1.5015  -1.4921   0.5310   0.6564
     0.7868   5.8564   7.6793   7.6850   8.6439   9.1486  10.5021  10.5168
    14.8646  15.6398  17.2140  17.2253

          k = 0.0000 0.0000 0.5278 (  1539 PWs)   bands (ev):

    -9.8248  -8.7680  -3.1588  -3.1514  -0.4439  -0.4345   1.6548   1.7792
     1.9275   6.4816   7.9804   8.4735   8.4798   9.4374  10.5185  10.9674
    11.0964  11.1113  14.5313  14.5356

          k = 0.0000 0.0000 1.0556 (  1532 PWs)   bands (ev):

    -6.5485  -5.8018   0.2660   0.2742   1.3104   1.3884   2.3802   2.3907
     4.8198   5.4196   6.6043   6.6097   7.0199   7.0931   8.2829   8.2903
    10.0137  11.1221  11.7568  12.0291

          k = 0.0000-0.5000 0.0000 (  1548 PWs)   bands (ev):

   -10.5055 -10.5021  -3.5573  -3.5356  -3.4000  -3.3809   2.9528   2.9749
     3.6253   3.6296   4.7901   4.7978   9.0089   9.0337  11.0560  11.0652
    15.2268  15.2296  18.0816  18.1023

          k = 0.0000-0.5000 0.5278 (  1536 PWs)   bands (ev):

    -9.3369  -9.3335  -2.4003  -2.3787  -2.2349  -2.2156   4.0604   4.0843
     4.5185   4.5223   5.4436   5.4525   9.7190   9.7444   9.9173   9.9219
    11.7250  11.7340  14.7055  14.7159

          k = 0.0000-0.5000 1.0556 (  1552 PWs)   bands (ev):

    -6.1867  -6.1835   0.3875   0.4030   1.0621   1.0827   2.2328   2.2416
     5.8419   5.8503   6.1475   6.1746   7.8765   7.8837   8.1736   8.1789
     9.5658   9.5688  12.3491  12.3662

          k =-0.5000 0.0000 0.0000 (  1548 PWs)   bands (ev):

   -10.5062 -10.5014  -3.5516  -3.5297  -3.4071  -3.3859   2.9528   2.9773
     3.6213   3.6297   4.7917   4.8021   9.0001   9.0272  11.0637  11.0722
    15.2261  15.2302  18.0872  18.1045

          k =-0.5000 0.0000 0.5278 (  1536 PWs)   bands (ev):

    -9.3375  -9.3329  -2.3946  -2.3728  -2.2420  -2.2208   4.0608   4.0866
     4.5148   4.5223   5.4449   5.4558   9.7098   9.7370   9.9192   9.9252
    11.7304  11.7387  14.7084  14.7182

          k =-0.5000 0.0000 1.0556 (  1552 PWs)   bands (ev):

    -6.1870  -6.1832   0.3917   0.4067   1.0547   1.0761   2.2364   2.2439
     5.8386   5.8484   6.1517   6.1796   7.8729   7.8809   8.1715   8.1829
     9.5642   9.5702  12.3531  12.3708

          k =-0.5000-0.5000 0.0000 (  1532 PWs)   bands (ev):

   -10.4423 -10.4401  -5.0164  -4.9937  -1.1295  -1.1079   1.4617   1.4644
     4.5999   4.6017   5.2637   5.3019   6.9628   6.9630  13.0010  13.0120
    15.2579  15.2608  15.2689  15.2878

          k =-0.5000-0.5000 0.5278 (  1560 PWs)   bands (ev):

    -9.2786  -9.2763  -3.7951  -3.7724  -0.0957  -0.0742   2.4646   2.4671
     5.6740   5.6758   6.3143   6.3531   7.2204   7.2208  10.3709  10.3724
    12.5459  12.5611  14.5492  14.5639

          k =-0.5000-0.5000 1.0556 (  1552 PWs)   bands (ev):

    -6.1511  -6.1485  -0.2538  -0.2309   1.4249   1.4264   2.5633   2.5869
     5.9559   5.9576   6.4630   6.4807   7.4570   7.4878   8.7873   8.7888
     9.0559   9.0566  11.4058  11.4208

     the Fermi energy is    10.2738 ev

!    total energy              =     -89.49296253 Ry
     Harris-Foulkes estimate   =     -89.49296268 Ry
     estimated scf accuracy    <       0.00000022 Ry

     The total energy is the sum of the following terms:

     one-electron contribution =      18.21565776 Ry
     hartree contribution      =      11.60434055 Ry
     xc contribution           =     -27.14258034 Ry
     ewald contribution        =     -92.17379974 Ry
     smearing contrib. (-TS)   =       0.00341924 Ry

     convergence has been achieved in   9 iterations

     Forces acting on atoms (cartesian axes, Ry/au):

     atom    1 type  1   force =    -0.00461384   -0.00039861   -0.00010687
     atom    2 type  1   force =     0.00019061    0.00434711    0.00015600
     atom    3 type  1   force =    -0.00380026   -0.00020685    0.00014070
     atom    4 type  1   force =     0.00056034    0.00308144   -0.00018739
     atom    5 type  1   force =    -0.00024963   -0.00417049   -0.00015631
     atom    6 type  1   force =     0.00439160    0.00010412    0.00010565
     atom    7 type  1   force =     0.00012520   -0.00300529    0.00018707
     atom    8 type  1   force =     0.00339598    0.00024857   -0.00013884

     Total force =     0.011057     Total SCF correction =     0.001202
     SCF correction compared to forces is large: reduce conv_thr to get better values


     Computing stress (Cartesian axis) and pressure

          total   stress  (Ry/bohr**3)                   (kbar)     P=      116.02
   0.00139964   0.00000498  -0.00000066          205.89        0.73       -0.10
   0.00000498   0.00138556  -0.00000061            0.73      203.82       -0.09
  -0.00000066  -0.00000061  -0.00041921           -0.10       -0.09      -61.67


     BFGS Geometry Optimization

     number of scf cycles    =   1
     number of bfgs steps    =   0

     enthalpy new            =     -89.4929379031 Ry

     new trust radius        =       0.1331915339 bohr
     new conv_thr            =       0.0000010000 Ry

     new unit-cell volume =    383.85171 a.u.^3 (    56.88095 Ang^3 )
     density =      2.80255 g/cm^3

CELL_PARAMETERS (bohr)
  10.195783623   0.001227491  -0.000162619
   0.001227491  10.192314586  -0.000150931
  -0.000061621  -0.000057193   3.693771739

ATOMIC_POSITIONS (crystal)
C             0.7991586424        0.0001835361        0.0003733700
C             0.5000653493        0.7007482822        0.4994617899
C             0.2991662303        0.4998220021        0.4995706932
C            -0.0000631195        0.2012278012        0.0005897995
C             0.5002606600        0.2990966476        0.5005431257
C             0.2005237978       -0.0000254310       -0.0003776988
C            -0.0002782912        0.7989219286       -0.0005948866
C             0.7011657308        0.5000252332        0.5004348071



     Writing output data file ./pp.save/
     NEW-OLD atomic charge density approx. for the potential
     extrapolated charge   33.80030, renormalised to   32.00000

     total cpu time spent up to now is        7.2 secs

     Self-consistent Calculation

     iteration #  1     ecut=    40.00 Ry     beta= 0.50
     Davidson diagonalization with overlap
     ethr =  1.00E-06,  avg # of iterations =  6.7

     total cpu time spent up to now is        8.9 secs

     total energy              =     -89.40438445 Ry
     Harris-Foulkes estimate   =     -90.18317272 Ry
     estimated scf accuracy    <       0.12055552 Ry

     iteration #  2     ecut=    40.00 Ry     beta= 0.50
     Davidson diagonalization with overlap
     ethr =  3.77E-04,  avg # of iterations =  3.2

     total cpu time spent up to now is        9.7 secs

     total energy              =     -89.51559154 Ry
     Harris-Foulkes estimate   =     -89.56490233 Ry
     estimated scf accuracy    <       0.13635108 Ry

     iteration #  3     ecut=    40.00 Ry     beta= 0.50
     Davidson diagonalization with overlap
     ethr =  3.77E-04,  avg # of iterations =  1.4

     total cpu time spent up to now is       10.1 secs

     total energy              =     -89.51864385 Ry
     Harris-Foulkes estimate   =     -89.52628855 Ry
     estimated scf accuracy    <       0.02173580 Ry

     iteration #  4     ecut=    40.00 Ry     beta= 0.50
     Davidson diagonalization with overlap
     ethr =  6.79E-05,  avg # of iterations =  2.4

     total cpu time spent up to now is       10.7 secs

     total energy              =     -89.52131217 Ry
     Harris-Foulkes estimate   =     -89.52162371 Ry
     estimated scf accuracy    <       0.00225487 Ry

     iteration #  5     ecut=    40.00 Ry     beta= 0.50
     Davidson diagonalization with overlap
     ethr =  7.05E-06,  avg # of iterations =  2.2

     total cpu time spent up to now is       11.3 secs

     total energy              =     -89.52143629 Ry
     Harris-Foulkes estimate   =     -89.52150615 Ry
     estimated scf accuracy    <       0.00149567 Ry

     iteration #  6     ecut=    40.00 Ry     beta= 0.50
     Davidson diagonalization with overlap
     ethr =  4.67E-06,  avg # of iterations =  1.0

     total cpu time spent up to now is       11.7 secs

     total energy              =     -89.52114826 Ry
     Harris-Foulkes estimate   =     -89.52149306 Ry
     estimated scf accuracy    <       0.00125942 Ry

     iteration #  7     ecut=    40.00 Ry     beta= 0.50
     Davidson diagonalization with overlap
     ethr =  3.94E-06,  avg # of iterations =  1.0

     total cpu time spent up to now is       12.1 secs

     total energy              =     -89.52103248 Ry
     Harris-Foulkes estimate   =     -89.52122317 Ry
     estimated scf accuracy    <       0.00038250 Ry

     iteration #  8     ecut=    40.00 Ry     beta= 0.50
     Davidson diagonalization with overlap
     ethr =  1.20E-06,  avg # of iterations =  2.5

     total cpu time spent up to now is       12.8 secs

     total energy              =     -89.52112964 Ry
     Harris-Foulkes estimate   =     -89.52113001 Ry
     estimated scf accuracy    <       0.00000484 Ry

     iteration #  9     ecut=    40.00 Ry     beta= 0.50
     Davidson diagonalization with overlap
     ethr =  1.51E-08,  avg # of iterations =  3.1

     total cpu time spent up to now is       13.6 secs

     total energy              =     -89.52113086 Ry
     Harris-Foulkes estimate   =     -89.52113136 Ry
     estimated scf accuracy    <       0.00000348 Ry

     iteration # 10     ecut=    40.00 Ry     beta= 0.50
     Davidson diagonalization with overlap
     ethr =  1.09E-08,  avg # of iterations =  1.0

     total cpu time spent up to now is       14.0 secs

     total energy              =     -89.52112981 Ry
     Harris-Foulkes estimate   =     -89.52113094 Ry
     estimated scf accuracy    <       0.00000227 Ry

     iteration # 11     ecut=    40.00 Ry     beta= 0.50
     Davidson diagonalization with overlap
     ethr =  7.11E-09,  avg # of iterations =  2.0

     total cpu time spent up to now is       14.6 secs

     End of self-consistent calculation

          k = 0.0000 0.0000 0.0000 (  1551 PWs)   bands (ev):

   -11.1356 -10.1231  -4.8793  -4.8767  -2.4622  -2.4544  -0.1135   0.4069
     0.4075   5.0271   6.7430   6.7485   6.7832   7.9727   9.3738   9.3771
    15.1167  15.2045  15.2114  15.7485

          k = 0.0000 0.0000 0.5334 (  1539 PWs)   bands (ev):

    -9.9013  -8.9310  -3.6575  -3.6548  -1.3576  -1.3498   1.1383   1.4857
     1.5927   5.7742   7.5444   7.6214   7.6217   7.6270  10.0714  10.0754
    10.3999  10.4806  14.0438  14.0468

          k = 0.0000 0.0000 1.0668 (  1532 PWs)   bands (ev):

    -6.4477  -5.7274  -0.1324  -0.1290   1.1816   1.1840   1.7150   1.7227
     4.5864   4.7917   5.9734   5.9768   6.6650   6.7139   7.4424   7.4484
     9.5191   9.9780  10.5735  11.2228

          k = 0.0001-0.4833-0.0000 (  1548 PWs)   bands (ev):

   -10.6695 -10.6678  -4.1350  -4.1213  -4.0247  -4.0124   2.1257   2.1383
     2.8978   2.9017   3.9541   3.9586   7.9587   7.9749   9.5585   9.5644
    15.4143  15.4156  16.3265  16.3412

          k = 0.0001-0.4833 0.5334 (  1536 PWs)   bands (ev):

    -9.4524  -9.4508  -2.9444  -2.9307  -2.8305  -2.8181   3.2730   3.2860
     3.8782   3.8818   4.7409   4.7456   8.7563   8.7729   9.5810   9.5860
    10.6163  10.6195  14.1098  14.1135

          k = 0.0001-0.4832 1.0668 (  1552 PWs)   bands (ev):

    -6.1009  -6.0996   0.1375   0.1484   0.5819   0.5949   1.7771   1.7809
     5.5417   5.5476   5.7194   5.7361   7.0615   7.0650   7.2906   7.2946
     8.7714   8.7736  11.5714  11.5824

          k =-0.4831 0.0001-0.0000 (  1548 PWs)   bands (ev):

   -10.6705 -10.6670  -4.1323  -4.1185  -4.0275  -4.0128   2.1221   2.1373
     2.8949   2.9028   3.9518   3.9596   7.9570   7.9758   9.5649   9.5706
    15.4135  15.4162  16.3300  16.3438

          k =-0.4831 0.0001 0.5334 (  1536 PWs)   bands (ev):

    -9.4534  -9.4500  -2.9417  -2.9280  -2.8332  -2.8187   3.2697   3.2851
     3.8756   3.8828   4.7390   4.7462   8.7542   8.7730   9.5840   9.5897
    10.6184  10.6215  14.1109  14.1143

          k =-0.4831 0.0001 1.0668 (  1552 PWs)   bands (ev):

    -6.1016  -6.0990   0.1393   0.1503   0.5791   0.5936   1.7780   1.7818
     5.5412   5.5473   5.7204   5.7375   7.0597   7.0638   7.2870   7.2956
     8.7691   8.7736  11.5733  11.5845

          k =-0.4830-0.4832-0.0000 (  1532 PWs)   bands (ev):

   -10.6143 -10.6139  -5.4602  -5.4458  -2.1081  -2.0936   1.0610   1.0612
     3.3710   3.3751   4.6351   4.6602   6.0277   6.0330  11.4986  11.5050
    13.5874  13.6053  15.4389  15.4393

          k =-0.4830-0.4832 0.5334 (  1560 PWs)   bands (ev):

    -9.4011  -9.4006  -4.2147  -4.2003  -1.0222  -1.0078   2.1394   2.1396
     4.4587   4.4626   5.7348   5.7603   6.5084   6.5123  10.2385  10.2387
    11.4818  11.4909  13.9303  13.9374

          k =-0.4830-0.4832 1.0668 (  1552 PWs)   bands (ev):

    -6.0675  -6.0671  -0.5916  -0.5770   1.2432   1.2434   1.9288   1.9444
     5.5971   5.5977   5.8685   5.8788   6.8388   6.8577   7.5997   7.6030
     8.5902   8.5925  10.5460  10.5556

     the Fermi energy is     9.6814 ev

!    total energy              =     -89.52113015 Ry
     Harris-Foulkes estimate   =     -89.52113020 Ry
     estimated scf accuracy    <       0.00000007 Ry

     The total energy is the sum of the following terms:

     one-electron contribution =      15.90589694 Ry
     hartree contribution      =      11.86843178 Ry
     xc contribution           =     -26.79917019 Ry
     ewald contribution        =     -90.49370865 Ry
     smearing contrib. (-TS)   =      -0.00258004 Ry

     convergence has been achieved in  11 iterations

     Forces acting on atoms (cartesian axes, Ry/au):

     atom    1 type  1   force =     0.03700395    0.00008105   -0.00017022
     atom    2 type  1   force =    -0.00023518   -0.03650191    0.00023923
     atom    3 type  1   force =     0.03748567    0.00031487    0.00017741
     atom    4 type  1   force =    -0.00015207   -0.03740434   -0.00024634
     atom    5 type  1   force =     0.00006105    0.03663261   -0.00023886
     atom    6 type  1   force =    -0.03681808   -0.00018844    0.00016945
     atom    7 type  1   force =     0.00041892    0.03730778    0.00024668
     atom    8 type  1   force =    -0.03776426   -0.00024162   -0.00017734

     Total force =     0.104987     Total SCF correction =     0.000742


     Computing stress (Cartesian axis) and pressure

          total   stress  (Ry/bohr**3)                   (kbar)     P=      -65.88
   0.00091149  -0.00000769  -0.00000016          134.09       -1.13       -0.02
  -0.00000769   0.00091162  -0.00000014           -1.13      134.10       -0.02
  -0.00000016  -0.00000014  -0.00316670           -0.02       -0.02     -465.84


     number of scf cycles    =   2
     number of bfgs steps    =   1

     enthalpy old            =     -89.4929379031 Ry
     enthalpy new            =     -89.5211040521 Ry

     CASE: enthalpy_new < enthalpy_old


     WARNING: bfgs curvature condition failed, Theta= 0.836
     new trust radius        =       0.1987034770 bohr
     new conv_thr            =       0.0000003776 Ry

     new unit-cell volume =    415.89270 a.u.^3 (    61.62894 Ang^3 )
     density =      2.58664 g/cm^3

CELL_PARAMETERS (bohr)
  10.712809317   0.002989287  -0.000404950
   0.002989269  10.704205804  -0.000375849
  -0.000153283  -0.000142268   3.626799178

ATOMIC_POSITIONS (crystal)
C             0.7985758693        0.0001238656        0.0003296780
C             0.5000932876        0.7012924981        0.4995254929
C             0.2987072124        0.4997918610        0.4996278526
C             0.0000206510        0.2015790356        0.0005135956
C             0.5002233279        0.2985793769        0.5004793005
C             0.2010737169       -0.0000103561       -0.0003344996
C            -0.0002582010        0.7985818528       -0.0005188092
C             0.7015631360        0.5000618661        0.5003783892



     Writing output data file ./pp.save/
     NEW-OLD atomic charge density approx. for the potential
     extrapolated charge   34.46530, renormalised to   32.00000

     total cpu time spent up to now is       14.7 secs

     Self-consistent Calculation

     iteration #  1     ecut=    40.00 Ry     beta= 0.50
     Davidson diagonalization with overlap
     ethr =  1.00E-06,  avg # of iterations = 10.2

     total cpu time spent up to now is       17.0 secs

     total energy              =     -89.38681369 Ry
     Harris-Foulkes estimate   =     -90.32708633 Ry
     estimated scf accuracy    <       0.15654730 Ry

     iteration #  2     ecut=    40.00 Ry     beta= 0.50
     Davidson diagonalization with overlap
     ethr =  4.89E-04,  avg # of iterations =  3.4

     total cpu time spent up to now is       18.0 secs

     total energy              =     -89.56645219 Ry
     Harris-Foulkes estimate   =     -89.63518691 Ry
     estimated scf accuracy    <       0.19531197 Ry

     iteration #  3     ecut=    40.00 Ry     beta= 0.50
     Davidson diagonalization with overlap
     ethr =  4.89E-04,  avg # of iterations =  1.5

     total cpu time spent up to now is       18.5 secs

     total energy              =     -89.55790959 Ry
     Harris-Foulkes estimate   =     -89.57913203 Ry
     estimated scf accuracy    <       0.04158648 Ry

     iteration #  4     ecut=    40.00 Ry     beta= 0.50
     Davidson diagonalization with overlap
     ethr =  1.30E-04,  avg # of iterations =  2.3

     total cpu time spent up to now is       19.2 secs

     total energy              =     -89.56756509 Ry
     Harris-Foulkes estimate   =     -89.56775374 Ry
     estimated scf accuracy    <       0.00069049 Ry

     iteration #  5     ecut=    40.00 Ry     beta= 0.50
     Davidson diagonalization with overlap
     ethr =  2.16E-06,  avg # of iterations =  3.1

     total cpu time spent up to now is       20.1 secs

     total energy              =     -89.56791723 Ry
     Harris-Foulkes estimate   =     -89.56781813 Ry
     estimated scf accuracy    <       0.00036571 Ry

     iteration #  6     ecut=    40.00 Ry     beta= 0.50
     Davidson diagonalization with overlap
     ethr =  1.14E-06,  avg # of iterations =  2.5

     total cpu time spent up to now is       20.9 secs

     total energy              =     -89.56750771 Ry
     Harris-Foulkes estimate   =     -89.56810321 Ry
     estimated scf accuracy    <       0.00111063 Ry

     iteration #  7     ecut=    40.00 Ry     beta= 0.50
     Davidson diagonalization with overlap
     ethr =  1.14E-06,  avg # of iterations =  2.7

     total cpu time spent up to now is       21.7 secs

     total energy              =     -89.56772300 Ry
     Harris-Foulkes estimate   =     -89.56772843 Ry
     estimated scf accuracy    <       0.00001886 Ry

     iteration #  8     ecut=    40.00 Ry     beta= 0.50
     Davidson diagonalization with overlap
     ethr =  5.89E-08,  avg # of iterations =  2.8

     total cpu time spent up to now is       22.5 secs

     total energy              =     -89.56772796 Ry
     Harris-Foulkes estimate   =     -89.56772887 Ry
     estimated scf accuracy    <       0.00000459 Ry

     iteration #  9     ecut=    40.00 Ry     beta= 0.50
     Davidson diagonalization with overlap
     ethr =  1.44E-08,  avg # of iterations =  1.2

     total cpu time spent up to now is       23.1 secs

     total energy              =     -89.56772708 Ry
     Harris-Foulkes estimate   =     -89.56772815 Ry
     estimated scf accuracy    <       0.00000244 Ry

     iteration # 10     ecut=    40.00 Ry     beta= 0.50
     Davidson diagonalization with overlap
     ethr =  7.63E-09,  avg # of iterations =  2.0

     total cpu time spent up to now is       23.8 secs

     End of self-consistent calculation

          k = 0.0000 0.0000 0.0000 (  1551 PWs)   bands (ev):

   -11.2087 -10.3095  -5.5809  -5.5672  -3.6914  -3.6718  -1.1484  -0.0653
     0.0017   3.9591   4.2593   5.4435   5.4593   6.3547   7.8157   7.8255
    12.6178  12.6433  15.6495  16.1109

          k = 0.0000 0.0000 0.5432 (  1539 PWs)   bands (ev):

    -9.9069  -9.0401  -4.3117  -4.2979  -2.5200  -2.5004   0.1232   1.1948
     1.1984   4.8753   5.1663   6.4518   6.4674   6.6548   8.6644   8.6741
    10.2840  10.4640  12.5620  12.5819

          k = 0.0000 0.0000 1.0865 (  1532 PWs)   bands (ev):

    -6.1872  -5.5010  -0.6223  -0.6076   0.8551   0.8749   1.0770   1.1514
     3.8112   4.3745   5.2898   5.3036   6.2481   6.2813   6.4558   6.4724
     7.6849   8.8218   9.7279  10.1499

          k = 0.0001-0.4602-0.0000 (  1548 PWs)   bands (ev):

   -10.7949 -10.7921  -4.9305  -4.9240  -4.8565  -4.8507   0.8350   0.8410
     2.0032   2.0068   2.8544   2.8580   6.5088   6.5167   7.5664   7.5700
    14.0006  14.0068  14.7643  14.7713

          k = 0.0001-0.4601 0.5432 (  1536 PWs)   bands (ev):

    -9.5066  -9.5038  -3.6879  -3.6814  -3.6141  -3.6084   2.0199   2.0257
     3.1071   3.1105   3.8257   3.8294   7.4445   7.4525   8.2403   8.2446
    10.2775  10.2797  13.2737  13.2768

          k = 0.0002-0.4601 1.0865 (  1552 PWs)   bands (ev):

    -5.8614  -5.8585  -0.2264  -0.2205  -0.0185  -0.0136   1.4095   1.4109
     5.0415   5.0486   5.2406   5.2442   6.0712   6.0732   6.1300   6.1316
     7.8326   7.8352  10.5288  10.5344

          k =-0.4598 0.0001-0.0000 (  1548 PWs)   bands (ev):

   -10.7957 -10.7918  -4.9307  -4.9254  -4.8549  -4.8461   0.8284   0.8380
     2.0011   2.0082   2.8485   2.8555   6.5144   6.5260   7.5706   7.5744
    14.0002  14.0084  14.7701  14.7761

          k =-0.4598 0.0001 0.5432 (  1536 PWs)   bands (ev):

    -9.5073  -9.5035  -3.6882  -3.6830  -3.6126  -3.6039   2.0137   2.0231
     3.1051   3.1119   3.8205   3.8272   7.4497   7.4611   8.2428   8.2471
    10.2771  10.2801  13.2749  13.2774

          k =-0.4597 0.0002 1.0865 (  1552 PWs)   bands (ev):

    -5.8619  -5.8583  -0.2274  -0.2222  -0.0171  -0.0090   1.4085   1.4113
     5.0381   5.0459   5.2433   5.2458   6.0684   6.0719   6.1294   6.1314
     7.8302   7.8338  10.5284  10.5340

          k =-0.4597-0.4600-0.0000 (  1532 PWs)   bands (ev):

   -10.7482 -10.7454  -6.0744  -6.0606  -3.3547  -3.3340   0.5272   0.5303
     1.6171   1.6233   3.7289   3.7427   4.7589   4.7697   9.4535   9.4593
    11.4090  11.4379  15.8836  15.8856

          k =-0.4596-0.4600 0.5432 (  1560 PWs)   bands (ev):

    -9.4627  -9.4599  -4.7858  -4.7718  -2.1975  -2.1769   1.7160   1.7186
     2.7342   2.7400   4.9136   4.9278   5.5115   5.5200   9.8629   9.8713
    10.3132  10.3153  12.0823  12.1066

          k =-0.4596-0.4600 1.0864 (  1552 PWs)   bands (ev):

    -5.8306  -5.8277  -1.0189  -1.0042   1.0990   1.1199   1.1611   1.1635
     5.2126   5.2233   5.2325   5.2339   5.9321   5.9370   6.0804   6.0984
     7.9676   7.9731   9.4654   9.4744

     the Fermi energy is     8.2312 ev

!    total energy              =     -89.56772727 Ry
     Harris-Foulkes estimate   =     -89.56772741 Ry
     estimated scf accuracy    <       0.00000017 Ry

     The total energy is the sum of the following terms:

     one-electron contribution =      12.17138008 Ry
     hartree contribution      =      12.53894049 Ry
     xc contribution           =     -26.35353333 Ry
     ewald contribution        =     -87.92670119 Ry
     smearing contrib. (-TS)   =       0.00218668 Ry

     convergence has been achieved in  10 iterations

     Forces acting on atoms (cartesian axes, Ry/au):

     atom    1 type  1   force =     0.08815438    0.00042119   -0.00024592
     atom    2 type  1   force =    -0.00057790   -0.08760015    0.00033522
     atom    3 type  1   force =     0.08845483    0.00068120    0.00020554
     atom    4 type  1   force =    -0.00063616   -0.08791594   -0.00029809
     atom    5 type  1   force =     0.00026254    0.08761173   -0.00033377
     atom    6 type  1   force =    -0.08779682   -0.00041921    0.00024549
     atom    7 type  1   force =     0.00060214    0.08775872    0.00029767
     atom    8 type  1   force =    -0.08846300   -0.00053754   -0.00020614

     Total force =     0.248823     Total SCF correction =     0.001249


     Computing stress (Cartesian axis) and pressure

          total   stress  (Ry/bohr**3)                   (kbar)     P=     -260.89
  -0.00052821  -0.00001606   0.00000046          -77.70       -2.36        0.07
  -0.00001606  -0.00051208   0.00000043           -2.36      -75.33        0.06
   0.00000046   0.00000043  -0.00428029            0.07        0.06     -629.65


     number of scf cycles    =   3
     number of bfgs steps    =   2

     enthalpy old            =     -89.5211040521 Ry
     enthalpy new            =     -89.5676989992 Ry

     CASE: enthalpy_new < enthalpy_old

     new trust radius        =       0.0827720846 bohr
     new conv_thr            =       0.0000008846 Ry

     new unit-cell volume =    430.69535 a.u.^3 (    63.82247 Ang^3 )
     density =      2.49774 g/cm^3

CELL_PARAMETERS (bohr)
  10.930204185   0.005046237  -0.000609934
   0.005044955  10.917741218  -0.000565538
  -0.000217811  -0.000201902   3.609185562

ATOMIC_POSITIONS (crystal)
C             0.8011203838        0.0000652037        0.0002740117
C             0.5001124913        0.6986548754        0.4996039299
C             0.3013907563        0.4997652517        0.4996877491
C             0.0001062937        0.1987771166        0.0004313593
C             0.5001851238        0.3012346849        0.5004009156
C             0.1984815915       -0.0000017095       -0.0002793635
C            -0.0002348096        0.8014024961       -0.0004370891
C             0.6988371692        0.5001020812        0.5003194870



     Writing output data file ./pp.save/
     NEW-OLD atomic charge density approx. for the potential
     extrapolated charge   33.09980, renormalised to   32.00000

     total cpu time spent up to now is       23.9 secs

     Self-consistent Calculation

     iteration #  1     ecut=    40.00 Ry     beta= 0.50
     Davidson diagonalization with overlap
     ethr =  1.00E-06,  avg # of iterations =  7.8

     total cpu time spent up to now is       26.2 secs

     total energy              =     -89.55661444 Ry
     Harris-Foulkes estimate   =     -89.81776238 Ry
     estimated scf accuracy    <       0.01846635 Ry

     iteration #  2     ecut=    40.00 Ry     beta= 0.50
     Davidson diagonalization with overlap
     ethr =  5.77E-05,  avg # of iterations =  3.6

     total cpu time spent up to now is       27.5 secs

     total energy              =     -89.58741249 Ry
     Harris-Foulkes estimate   =     -89.59954616 Ry
     estimated scf accuracy    <       0.03964508 Ry

     iteration #  3     ecut=    40.00 Ry     beta= 0.50
     Davidson diagonalization with overlap
     ethr =  5.77E-05,  avg # of iterations =  2.0

     total cpu time spent up to now is       28.3 secs

     total energy              =     -89.58521261 Ry
     Harris-Foulkes estimate   =     -89.58938189 Ry
     estimated scf accuracy    <       0.01083409 Ry

     iteration #  4     ecut=    40.00 Ry     beta= 0.50
     Davidson diagonalization with overlap
     ethr =  3.39E-05,  avg # of iterations =  2.0

     total cpu time spent up to now is       29.0 secs

     total energy              =     -89.58602165 Ry
     Harris-Foulkes estimate   =     -89.58636003 Ry
     estimated scf accuracy    <       0.00140673 Ry

     iteration #  5     ecut=    40.00 Ry     beta= 0.50
     Davidson diagonalization with overlap
     ethr =  4.40E-06,  avg # of iterations =  1.8

     total cpu time spent up to now is       29.8 secs

     total energy              =     -89.58612958 Ry
     Harris-Foulkes estimate   =     -89.58616353 Ry
     estimated scf accuracy    <       0.00053138 Ry

     iteration #  6     ecut=    40.00 Ry     beta= 0.50
     Davidson diagonalization with overlap
     ethr =  1.66E-06,  avg # of iterations =  1.2

     total cpu time spent up to now is       30.5 secs

     total energy              =     -89.58606118 Ry
     Harris-Foulkes estimate   =     -89.58615238 Ry
     estimated scf accuracy    <       0.00041084 Ry

     iteration #  7     ecut=    40.00 Ry     beta= 0.50
     Davidson diagonalization with overlap
     ethr =  1.28E-06,  avg # of iterations =  1.1

     total cpu time spent up to now is       31.1 secs

     total energy              =     -89.58598832 Ry
     Harris-Foulkes estimate   =     -89.58607937 Ry
     estimated scf accuracy    <       0.00016893 Ry

     iteration #  8     ecut=    40.00 Ry     beta= 0.50
     Davidson diagonalization with overlap
     ethr =  5.28E-07,  avg # of iterations =  2.5

     total cpu time spent up to now is       32.2 secs

     total energy              =     -89.58603610 Ry
     Harris-Foulkes estimate   =     -89.58603584 Ry
     estimated scf accuracy    <       0.00000248 Ry

     iteration #  9     ecut=    40.00 Ry     beta= 0.50
     Davidson diagonalization with overlap
     ethr =  7.76E-09,  avg # of iterations =  3.1

     total cpu time spent up to now is       33.4 secs

     total energy              =     -89.58603601 Ry
     Harris-Foulkes estimate   =     -89.58603718 Ry
     estimated scf accuracy    <       0.00000354 Ry

     iteration # 10     ecut=    40.00 Ry     beta= 0.50
     Davidson diagonalization with overlap
     ethr =  7.76E-09,  avg # of iterations =  1.5

     total cpu time spent up to now is       34.2 secs

     End of self-consistent calculation

          k = 0.0000 0.0000 0.0000 (  1551 PWs)   bands (ev):

   -11.5197 -10.7427  -5.9437  -5.9189  -4.2957  -4.2622  -1.4006  -0.3406
    -0.2339   3.2840   3.3380   4.9871   5.0133   5.4922   7.1446   7.1660
    11.8235  11.8683  15.5127  15.8841

          k = 0.0000 0.0000 0.5459 (  1539 PWs)   bands (ev):

   -10.2042  -9.4553  -4.6655  -4.6404  -3.1062  -3.0728  -0.1280   0.9338
     0.9801   4.2514   4.2756   5.9442   6.0208   6.0473   8.0290   8.0502
    10.0223  10.1466  11.9440  11.9794

          k = 0.0001 0.0001 1.0918 (  1532 PWs)   bands (ev):

    -6.4369  -5.8398  -0.9467  -0.9202   0.3361   0.3699   0.7757   0.8419
     3.5519   4.1184   4.9498   4.9749   5.8533   5.9346   5.9498   5.9785
     6.8915   8.3455   9.4524   9.7227

          k = 0.0002-0.4512-0.0000 (  1548 PWs)   bands (ev):

   -11.1588 -11.1550  -5.3441  -5.3428  -5.2831  -5.2793   0.4045   0.4084
     1.4951   1.4988   2.3327   2.3353   5.9715   5.9750   6.7969   6.7972
    13.2462  13.2488  13.8993  13.9030

          k = 0.0002-0.4511 0.5459 (  1536 PWs)   bands (ev):

    -9.8553  -9.8515  -4.0913  -4.0898  -4.0310  -4.0274   1.5924   1.5964
     2.6290   2.6326   3.3401   3.3429   6.9348   6.9381   7.5554   7.5560
     9.9955   9.9983  12.7939  12.7952

          k = 0.0003-0.4511 1.0918 (  1552 PWs)   bands (ev):

    -6.1526  -6.1485  -0.5530  -0.5519  -0.4019  -0.3997   1.0258   1.0285
     4.7035   4.7069   4.9144   4.9165   5.6115   5.6123   5.6523   5.6551
     7.3511   7.3532  10.0890  10.0897

          k =-0.4506 0.0002-0.0000 (  1548 PWs)   bands (ev):

   -11.1592 -11.1551  -5.3492  -5.3473  -5.2761  -5.2715   0.3971   0.4051
     1.4933   1.5008   2.3242   2.3295   5.9846   5.9920   6.7966   6.7975
    13.2421  13.2460  13.9107  13.9153

          k =-0.4506 0.0002 0.5459 (  1536 PWs)   bands (ev):

    -9.8557  -9.8516  -4.0963  -4.0944  -4.0241  -4.0197   1.5856   1.5935
     2.6273   2.6345   3.3326   3.3377   6.9477   6.9546   7.5526   7.5536
     9.9956   9.9989  12.7935  12.7947

          k =-0.4506 0.0003 1.0918 (  1552 PWs)   bands (ev):

    -6.1528  -6.1486  -0.5590  -0.5567  -0.3948  -0.3912   1.0249   1.0278
     4.6969   4.7030   4.9179   4.9215   5.6065   5.6085   5.6538   5.6569
     7.3485   7.3513  10.0842  10.0859

          k =-0.4504-0.4509-0.0001 (  1532 PWs)   bands (ev):

   -11.1228 -11.1190  -6.3691  -6.3472  -3.9982  -3.9645   0.1966   0.2021
     1.0419   1.0510   3.4339   3.4478   4.0489   4.0657   8.5801   8.5891
    10.7777  10.8243  15.7004  15.7030

          k =-0.4504-0.4509 0.5458 (  1560 PWs)   bands (ev):

    -9.8215  -9.8177  -5.0733  -5.0511  -2.8212  -2.7876   1.4072   1.4119
     2.1674   2.1760   4.6322   4.6473   4.8652   4.8787   9.0992   9.1121
    10.0459  10.0488  11.4887  11.5282

          k =-0.4504-0.4509 1.0917 (  1552 PWs)   bands (ev):

    -6.1287  -6.1246  -1.2859  -1.2623   0.5567   0.5906   0.8456   0.8489
     4.8748   4.8801   4.8988   4.9210   5.3818   5.3887   5.6607   5.6893
     7.5288   7.5375   9.0384   9.0512

     the Fermi energy is     7.6303 ev

!    total energy              =     -89.58603553 Ry
     Harris-Foulkes estimate   =     -89.58603621 Ry
     estimated scf accuracy    <       0.00000083 Ry

     The total energy is the sum of the following terms:

     one-electron contribution =       8.42011256 Ry
     hartree contribution      =      13.85358642 Ry
     xc contribution           =     -26.27326467 Ry
     ewald contribution        =     -85.58607169 Ry
     smearing contrib. (-TS)   =      -0.00039815 Ry

     convergence has been achieved in  10 iterations

     Forces acting on atoms (cartesian axes, Ry/au):

     atom    1 type  1   force =     0.08795647    0.00091042   -0.00024891
     atom    2 type  1   force =    -0.00090921   -0.08700888    0.00032911
     atom    3 type  1   force =     0.08778552    0.00100455    0.00016041
     atom    4 type  1   force =    -0.00122452   -0.08698838   -0.00024722
     atom    5 type  1   force =     0.00067600    0.08703176   -0.00032661
     atom    6 type  1   force =    -0.08721346   -0.00069871    0.00024828
     atom    7 type  1   force =     0.00071818    0.08666821    0.00024701
     atom    8 type  1   force =    -0.08778900   -0.00091898   -0.00016206

     Total force =     0.246954     Total SCF correction =     0.002963


     Computing stress (Cartesian axis) and pressure

          total   stress  (Ry/bohr**3)                   (kbar)     P=     -285.04
  -0.00076307  -0.00002328   0.00000050         -112.25       -3.42        0.07
  -0.00002328  -0.00073282   0.00000046           -3.42     -107.80        0.07
   0.00000050   0.00000046  -0.00431718            0.07        0.07     -635.08


     number of scf cycles    =   4
     number of bfgs steps    =   3

     enthalpy old            =     -89.5676989992 Ry
     enthalpy new            =     -89.5860062493 Ry

     CASE: enthalpy_new < enthalpy_old


     WARNING: bfgs curvature condition failed, Theta= 0.958
     new trust radius        =       0.1238349659 bohr
     new conv_thr            =       0.0000008796 Ry

     new unit-cell volume =    452.80917 a.u.^3 (    67.09940 Ang^3 )
     density =      2.37576 g/cm^3

CELL_PARAMETERS (bohr)
  11.256306329   0.006482128  -0.001055743
   0.006476399  11.241783135  -0.000982030
  -0.000347346  -0.000323168   3.578361877

ATOMIC_POSITIONS (crystal)
C             0.8061970262        0.0000364217        0.0001610010
C             0.5000891323        0.6934555120        0.4997584109
C             0.3066671818        0.4997704850        0.4997874057
C             0.0001738749        0.1933041766        0.0002895797
C             0.5001853365        0.3064719997        0.5002469778
C             0.1933754966       -0.0000377975       -0.0001675515
C            -0.0001643595        0.8068851458       -0.0002963061
C             0.6934753111        0.5001140568        0.5002214825



     Writing output data file ./pp.save/
     NEW-OLD atomic charge density approx. for the potential
     extrapolated charge   33.56277, renormalised to   32.00000

     total cpu time spent up to now is       34.2 secs

     Self-consistent Calculation

     iteration #  1     ecut=    40.00 Ry     beta= 0.50
     Davidson diagonalization with overlap
     c_bands:  1 eigenvalues not converged
     ethr =  1.00E-06,  avg # of iterations =  8.6

     total cpu time spent up to now is       37.5 secs

     total energy              =     -89.55382343 Ry
     Harris-Foulkes estimate   =     -89.69075914 Ry
     estimated scf accuracy    <       0.03601875 Ry

     iteration #  2     ecut=    40.00 Ry     beta= 0.50
     Davidson diagonalization with overlap
     ethr =  1.13E-04,  avg # of iterations =  3.7

     total cpu time spent up to now is       39.2 secs

     total energy              =     -89.62599976 Ry
     Harris-Foulkes estimate   =     -89.65498630 Ry
     estimated scf accuracy    <       0.10242729 Ry

     iteration #  3     ecut=    40.00 Ry     beta= 0.50
     Davidson diagonalization with overlap
     ethr =  1.13E-04,  avg # of iterations =  2.0

     total cpu time spent up to now is       40.3 secs

     total energy              =     -89.61787347 Ry
     Harris-Foulkes estimate   =     -89.63036877 Ry
     estimated scf accuracy    <       0.03159438 Ry

     iteration #  4     ecut=    40.00 Ry     beta= 0.50
     Davidson diagonalization with overlap
     ethr =  9.87E-05,  avg # of iterations =  1.9

     total cpu time spent up to now is       41.3 secs

     total energy              =     -89.62040793 Ry
     Harris-Foulkes estimate   =     -89.62114156 Ry
     estimated scf accuracy    <       0.00322042 Ry

     iteration #  5     ecut=    40.00 Ry     beta= 0.50
     Davidson diagonalization with overlap
     ethr =  1.01E-05,  avg # of iterations =  2.6

     total cpu time spent up to now is       42.5 secs

     total energy              =     -89.62040654 Ry
     Harris-Foulkes estimate   =     -89.62080862 Ry
     estimated scf accuracy    <       0.00187407 Ry

     iteration #  6     ecut=    40.00 Ry     beta= 0.50
     Davidson diagonalization with overlap
     ethr =  5.86E-06,  avg # of iterations =  1.4

     total cpu time spent up to now is       43.4 secs

     total energy              =     -89.62040948 Ry
     Harris-Foulkes estimate   =     -89.62054273 Ry
     estimated scf accuracy    <       0.00058272 Ry

     iteration #  7     ecut=    40.00 Ry     beta= 0.50
     Davidson diagonalization with overlap
     ethr =  1.82E-06,  avg # of iterations =  2.6

     total cpu time spent up to now is       44.6 secs

     total energy              =     -89.62036269 Ry
     Harris-Foulkes estimate   =     -89.62045370 Ry
     estimated scf accuracy    <       0.00018820 Ry

     iteration #  8     ecut=    40.00 Ry     beta= 0.50
     Davidson diagonalization with overlap
     ethr =  5.88E-07,  avg # of iterations =  2.6

     total cpu time spent up to now is       46.0 secs

     total energy              =     -89.62040543 Ry
     Harris-Foulkes estimate   =     -89.62040597 Ry
     estimated scf accuracy    <       0.00000186 Ry

     iteration #  9     ecut=    40.00 Ry     beta= 0.50
     Davidson diagonalization with overlap
     ethr =  5.82E-09,  avg # of iterations =  3.4

     total cpu time spent up to now is       47.7 secs

     End of self-consistent calculation

          k = 0.0000 0.0000 0.0000 (  1551 PWs)   bands (ev):

   -12.1182 -11.5271  -6.5065  -6.4774  -5.1937  -5.1547  -1.7076  -0.7750
    -0.6013   2.1036   2.2408   4.2139   4.3751   4.4080   6.1907   6.2210
    10.8414  10.8931  13.0781  14.7278

          k = 0.0001 0.0000 0.5506 (  1539 PWs)   bands (ev):

   -10.7798 -10.2107  -5.2123  -5.1829  -3.9752  -3.9364  -0.4321   0.5192
     0.6376   3.0869   3.2818   4.8354   5.4430   5.4764   7.1276   7.1576
     9.6320   9.6384  11.1352  11.1764

          k = 0.0001 0.0001 1.1012 (  1532 PWs)   bands (ev):

    -6.9370  -6.4804  -1.4430  -1.4121  -0.4326  -0.3937   0.2341   0.2791
     3.2363   3.7105   4.4550   4.4848   5.1684   5.2233   5.2568   5.4953
     5.8360   7.6418   9.1383   9.1668

          k = 0.0003-0.4381-0.0000 (  1548 PWs)   bands (ev):

   -11.8401 -11.8341  -5.9981  -5.9938  -5.9516  -5.9451  -0.1800  -0.1771
     0.7254   0.7290   1.5636   1.5652   5.2232   5.2333   5.7570   5.7647
    12.2597  12.2737  12.7761  12.7812

          k = 0.0003-0.4381 0.5506 (  1536 PWs)   bands (ev):

   -10.5115 -10.5054  -4.7273  -4.7232  -4.6821  -4.6757   1.0138   1.0167
     1.9032   1.9069   2.6168   2.6190   6.2243   6.2350   6.6157   6.6241
     9.5535   9.5575  12.1063  12.1120

          k = 0.0004-0.4381 1.1011 (  1552 PWs)   bands (ev):

    -6.7190  -6.7125  -1.0878  -1.0828  -0.9968  -0.9890   0.3864   0.3913
     4.2178   4.2219   4.3962   4.3993   4.9534   4.9562   4.9719   4.9767
     6.6822   6.6846   9.4714   9.4788

          k =-0.4376 0.0003-0.0000 (  1548 PWs)   bands (ev):

   -11.8402 -11.8343  -6.0088  -6.0008  -5.9398  -5.9350  -0.1862  -0.1780
     0.7243   0.7312   1.5543   1.5575   5.2448   5.2567   5.7494   5.7552
    12.2532  12.2607  12.7904  12.8035

          k =-0.4375 0.0003 0.5506 (  1536 PWs)   bands (ev):

   -10.5116 -10.5057  -4.7379  -4.7301  -4.6705  -4.6659   1.0081   1.0161
     1.9021   1.9088   2.6086   2.6122   6.2462   6.2582   6.6050   6.6120
     9.5538   9.5585  12.1027  12.1069

          k =-0.4375 0.0003 1.1011 (  1552 PWs)   bands (ev):

    -6.7190  -6.7127  -1.0994  -1.0915  -0.9831  -0.9783   0.3858   0.3900
     4.2096   4.2185   4.3992   4.4064   4.9512   4.9549   4.9718   4.9764
     6.6798   6.6830   9.4608   9.4665

          k =-0.4373-0.4379-0.0001 (  1532 PWs)   bands (ev):

   -11.8183 -11.8123  -6.8323  -6.8063  -4.9598  -4.9217  -0.3176  -0.3128
     0.2805   0.2912   2.9799   2.9989   3.0391   3.0615   7.3590   7.3708
    10.0095  10.0611  15.4156  15.4196

          k =-0.4373-0.4378 0.5505 (  1560 PWs)   bands (ev):

   -10.4911 -10.4850  -5.5237  -5.4973  -3.7512  -3.7133   0.9238   0.9277
     1.4212   1.4312   3.8786   3.8944   4.2583   4.2817   8.0137   8.0294
     9.6150   9.6191  10.7468  10.7909

          k =-0.4372-0.4378 1.1011 (  1552 PWs)   bands (ev):

    -6.7045  -6.6980  -1.6991  -1.6712  -0.2557  -0.2177   0.2797   0.2847
     4.3274   4.3321   4.4374   4.4635   4.6639   4.6718   5.0335   5.0670
     6.8851   6.8946   8.5048   8.5209

     the Fermi energy is     6.8471 ev

!    total energy              =     -89.62040633 Ry
     Harris-Foulkes estimate   =     -89.62040674 Ry
     estimated scf accuracy    <       0.00000063 Ry

     The total energy is the sum of the following terms:

     one-electron contribution =       1.44359463 Ry
     hartree contribution      =      16.54422482 Ry
     xc contribution           =     -26.23106391 Ry
     ewald contribution        =     -81.37704323 Ry
     smearing contrib. (-TS)   =      -0.00011864 Ry

     convergence has been achieved in   9 iterations

     Forces acting on atoms (cartesian axes, Ry/au):

     atom    1 type  1   force =     0.07746039    0.00124627   -0.00023194
     atom    2 type  1   force =    -0.00117332   -0.07618284    0.00028548
     atom    3 type  1   force =     0.07667791    0.00120466    0.00005535
     atom    4 type  1   force =    -0.00167432   -0.07562282   -0.00012162
     atom    5 type  1   force =     0.00083567    0.07617007   -0.00028191
     atom    6 type  1   force =    -0.07623695   -0.00081581    0.00023129
     atom    7 type  1   force =     0.00065576    0.07509539    0.00012138
     atom    8 type  1   force =    -0.07654515   -0.00109491   -0.00005802

     Total force =     0.215697     Total SCF correction =     0.001612


     Computing stress (Cartesian axis) and pressure

          total   stress  (Ry/bohr**3)                   (kbar)     P=     -296.64
  -0.00084681  -0.00002636   0.00000066         -124.57       -3.88        0.10
  -0.00002636  -0.00081045   0.00000060           -3.88     -119.22        0.09
   0.00000066   0.00000060  -0.00439222            0.10        0.09     -646.12


     number of scf cycles    =   5
     number of bfgs steps    =   4

     enthalpy old            =     -89.5860062493 Ry
     enthalpy new            =     -89.6203755453 Ry

     CASE: enthalpy_new < enthalpy_old

     new trust radius        =       0.1849434951 bohr
     new conv_thr            =       0.0000007746 Ry

     new unit-cell volume =    483.67719 a.u.^3 (    71.67356 Ang^3 )
     density =      2.22414 g/cm^3

CELL_PARAMETERS (bohr)
  11.745461038   0.008086672  -0.001790141
   0.008073632  11.729392928  -0.001669261
  -0.000536614  -0.000500695   3.510833435

ATOMIC_POSITIONS (crystal)
C             0.8128907906        0.0000382857       -0.0000156549
C             0.5000113303        0.6866026991        0.4999924699
C             0.3135954038        0.4998073316        0.4999107711
C             0.0002191355        0.1860888914        0.0001055659
C             0.5002073378        0.3133805037        0.5000141550
C             0.1867053524       -0.0001133506        0.0000071013
C            -0.0000606661        0.8140853978       -0.0001139422
C             0.6864303157        0.5001102413        0.5001005339



     Writing output data file ./pp.save/
     NEW-OLD atomic charge density approx. for the potential
     extrapolated charge   34.04220, renormalised to   32.00000

     total cpu time spent up to now is       47.7 secs

     Self-consistent Calculation

     iteration #  1     ecut=    40.00 Ry     beta= 0.50
     Davidson diagonalization with overlap
     ethr =  1.00E-06,  avg # of iterations =  9.2

     total cpu time spent up to now is       52.1 secs

     total energy              =     -89.52169023 Ry
     Harris-Foulkes estimate   =     -89.21308231 Ry
     estimated scf accuracy    <       0.07439997 Ry

     iteration #  2     ecut=    40.00 Ry     beta= 0.50
     Davidson diagonalization with overlap
     ethr =  2.32E-04,  avg # of iterations =  3.7

     total cpu time spent up to now is       54.2 secs

     total energy              =     -89.68475988 Ry
     Harris-Foulkes estimate   =     -89.75235798 Ry
     estimated scf accuracy    <       0.24990321 Ry

     iteration #  3     ecut=    40.00 Ry     beta= 0.50
     Davidson diagonalization with overlap
     ethr =  2.32E-04,  avg # of iterations =  2.0

     total cpu time spent up to now is       55.5 secs

     total energy              =     -89.66595265 Ry
     Harris-Foulkes estimate   =     -89.69459653 Ry
     estimated scf accuracy    <       0.08136651 Ry

     iteration #  4     ecut=    40.00 Ry     beta= 0.50
     Davidson diagonalization with overlap
     ethr =  2.32E-04,  avg # of iterations =  1.3

     total cpu time spent up to now is       56.6 secs

     total energy              =     -89.66843340 Ry
     Harris-Foulkes estimate   =     -89.67198318 Ry
     estimated scf accuracy    <       0.01439648 Ry

     iteration #  5     ecut=    40.00 Ry     beta= 0.50
     Davidson diagonalization with overlap
     ethr =  4.50E-05,  avg # of iterations =  2.2

     total cpu time spent up to now is       57.9 secs

     total energy              =     -89.66777245 Ry
     Harris-Foulkes estimate   =     -89.67005376 Ry
     estimated scf accuracy    <       0.00534550 Ry

     iteration #  6     ecut=    40.00 Ry     beta= 0.50
     Davidson diagonalization with overlap
     ethr =  1.67E-05,  avg # of iterations =  2.8

     total cpu time spent up to now is       59.6 secs

     total energy              =     -89.66882466 Ry
     Harris-Foulkes estimate   =     -89.66881157 Ry
     estimated scf accuracy    <       0.00006709 Ry

     iteration #  7     ecut=    40.00 Ry     beta= 0.50
     Davidson diagonalization with overlap
     ethr =  2.10E-07,  avg # of iterations =  3.4

     total cpu time spent up to now is       61.5 secs

     total energy              =     -89.66896217 Ry
     Harris-Foulkes estimate   =     -89.66887503 Ry
     estimated scf accuracy    <       0.00016278 Ry

     iteration #  8     ecut=    40.00 Ry     beta= 0.50
     Davidson diagonalization with overlap
     ethr =  2.10E-07,  avg # of iterations =  2.3

     total cpu time spent up to now is       63.1 secs

     total energy              =     -89.66871265 Ry
     Harris-Foulkes estimate   =     -89.66898648 Ry
     estimated scf accuracy    <       0.00049137 Ry

     iteration #  9     ecut=    40.00 Ry     beta= 0.50
     Davidson diagonalization with overlap
     ethr =  2.10E-07,  avg # of iterations =  3.3

     total cpu time spent up to now is       65.2 secs

     total energy              =     -89.66882653 Ry
     Harris-Foulkes estimate   =     -89.66882564 Ry
     estimated scf accuracy    <       0.00000285 Ry

     iteration # 10     ecut=    40.00 Ry     beta= 0.50
     Davidson diagonalization with overlap
     ethr =  8.91E-09,  avg # of iterations =  2.2

     total cpu time spent up to now is       66.7 secs

     total energy              =     -89.66882388 Ry
     Harris-Foulkes estimate   =     -89.66882692 Ry
     estimated scf accuracy    <       0.00000573 Ry

     iteration # 11     ecut=    40.00 Ry     beta= 0.50
     Davidson diagonalization with overlap
     ethr =  8.91E-09,  avg # of iterations =  2.3

     total cpu time spent up to now is       68.5 secs

     End of self-consistent calculation

          k = 0.0000 0.0000 0.0000 (  1551 PWs)   bands (ev):

   -12.8723 -12.4715  -7.2743  -7.2459  -6.3435  -6.3054  -2.2463  -1.3415
    -1.0869   0.4908   0.9586   2.6281   3.5459   3.5843   4.9548   4.9936
     9.5766   9.6292  12.2597  13.2729

          k = 0.0001 0.0001 0.5612 (  1539 PWs)   bands (ev):

   -11.4787 -11.0930  -5.9384  -5.9098  -5.0678  -5.0301  -0.9536   0.0133
     0.2180   1.5423   2.1246   3.4739   4.6942   4.7334   5.9979   6.0365
     9.3168   9.4450  10.1250  10.1679

          k = 0.0002 0.0002 1.1224 (  1532 PWs)   bands (ev):

    -7.4418  -7.1265  -2.0371  -2.0077  -1.3371  -1.3000  -0.3399  -0.3100
     2.7201   3.3161   3.9149   3.9452   4.4218   4.4444   4.4565   4.4583
     5.0855   6.8730   8.5347   8.5596

          k = 0.0003-0.4199-0.0001 (  1548 PWs)   bands (ev):

   -12.6816 -12.6750  -6.8901  -6.8819  -6.8543  -6.8455  -1.0698  -1.0660
    -0.2184  -0.2158   0.5931   0.5938   4.2101   4.2393   4.4673   4.4945
    10.9511  10.9824  11.2986  11.3163

          k = 0.0004-0.4199 0.5611 (  1536 PWs)   bands (ev):

   -11.2950 -11.2884  -5.5750  -5.5678  -5.5397  -5.5320   0.1446   0.1478
     1.0487   1.0517   1.7424   1.7442   5.3007   5.3305   5.4765   5.5048
     9.2877   9.2910  11.2230  11.2391

          k = 0.0005-0.4198 1.1223 (  1552 PWs)   bands (ev):

    -7.2912  -7.2842  -1.7553  -1.7433  -1.7129  -1.6994  -0.2724  -0.2668
     3.4898   3.4938   3.8682   3.8720   4.2023   4.2045   4.2277   4.2321
     6.0026   6.0060   8.7341   8.7564

          k =-0.4194 0.0003-0.0001 (  1548 PWs)   bands (ev):

   -12.6815 -12.6752  -6.9046  -6.8864  -6.8468  -6.8315  -1.0748  -1.0639
    -0.2190  -0.2141   0.5845   0.5872   4.2396   4.2717   4.4484   4.4720
    10.9370  10.9581  11.3196  11.3489

          k =-0.4193 0.0004 0.5611 (  1536 PWs)   bands (ev):

   -11.2950 -11.2886  -5.5891  -5.5714  -5.5332  -5.5184   0.1398   0.1500
     1.0481   1.0531   1.7352   1.7386   5.3310   5.3631   5.4546   5.4799
     9.2879   9.2936  11.2108  11.2217

          k =-0.4192 0.0004 1.1223 (  1552 PWs)   bands (ev):

    -7.2912  -7.2843  -1.7699  -1.7519  -1.7011  -1.6857  -0.2725  -0.2676
     3.4829   3.4935   3.8702   3.8787   4.1938   4.2051   4.2274   4.2359
     6.0009   6.0048   8.7186   8.7382

          k =-0.4191-0.4196-0.0001 (  1532 PWs)   bands (ev):

   -12.6707 -12.6642  -7.4993  -7.4686  -6.1782  -6.1397  -0.9703  -0.9684
    -0.8004  -0.7886   1.6472   1.6669   2.4807   2.5240   5.8115   5.8362
     8.9849   9.0379  13.5293  13.6683

          k =-0.4190-0.4196 0.5611 (  1560 PWs)   bands (ev):

   -11.2849 -11.2783  -6.1526  -6.1218  -4.9097  -4.8716   0.3399   0.3452
     0.3764   0.3885   2.6856   2.7023   3.7613   3.8048   6.6565   6.6838
     9.3760   9.3802   9.8116   9.8567

          k =-0.4189-0.4195 1.1222 (  1552 PWs)   bands (ev):

    -7.2839  -7.2769  -2.2121  -2.1807  -1.2094  -1.1718  -0.3135  -0.3082
     3.6748   3.6830   3.7841   3.7877   3.9182   3.9482   4.3196   4.3558
     6.2079   6.2171   7.9527   7.9820

     the Fermi energy is     6.0281 ev

!    total energy              =     -89.66882492 Ry
     Harris-Foulkes estimate   =     -89.66882493 Ry
     estimated scf accuracy    <       0.00000002 Ry

     The total energy is the sum of the following terms:

     one-electron contribution =      -9.27189773 Ry
     hartree contribution      =      20.94942582 Ry
     xc contribution           =     -26.22982606 Ry
     ewald contribution        =     -75.11380081 Ry
     smearing contrib. (-TS)   =      -0.00272615 Ry

     convergence has been achieved in  11 iterations

     Forces acting on atoms (cartesian axes, Ry/au):

     atom    1 type  1   force =     0.07563344    0.00104311   -0.00016853
     atom    2 type  1   force =    -0.00091556   -0.07471215    0.00017656
     atom    3 type  1   force =     0.07337892    0.00090229   -0.00010057
     atom    4 type  1   force =    -0.00163678   -0.07253261    0.00007417
     atom    5 type  1   force =     0.00040304    0.07458115   -0.00017211
     atom    6 type  1   force =    -0.07399405   -0.00036674    0.00016806
     atom    7 type  1   force =     0.00007069    0.07182223   -0.00007468
     atom    8 type  1   force =    -0.07293971   -0.00073728    0.00009710

     Total force =     0.208495     Total SCF correction =     0.000379


     Computing stress (Cartesian axis) and pressure

          total   stress  (Ry/bohr**3)                   (kbar)     P=     -307.95
  -0.00099020  -0.00002367   0.00000150         -145.66       -3.48        0.22
  -0.00002367  -0.00097263   0.00000140           -3.48     -143.08        0.21
   0.00000150   0.00000140  -0.00431731            0.22        0.21     -635.10


     number of scf cycles    =   6
     number of bfgs steps    =   5

     enthalpy old            =     -89.6203755453 Ry
     enthalpy new            =     -89.6687920438 Ry

     CASE: enthalpy_new < enthalpy_old

     new trust radius        =       0.2747742963 bohr
     new conv_thr            =       0.0000007563 Ry

     new unit-cell volume =    528.30386 a.u.^3 (    78.28655 Ang^3 )
     density =      2.03626 g/cm^3

CELL_PARAMETERS (bohr)
  12.479186966   0.012478362  -0.002732827
   0.012451021  12.451965379  -0.002546323
  -0.000688048  -0.000641024   3.399852389

ATOMIC_POSITIONS (crystal)
C             0.8233105354       -0.0000031585       -0.0002727051
C             0.4999372259        0.6758496755        0.5003239620
C             0.3241369784        0.4998063468        0.5000500065
C             0.0003097542        0.1750377110       -0.0001152004
C             0.5001587564        0.3242016519        0.4996848993
C             0.1763907107       -0.0001505619        0.0002609332
C            -0.0000009048        0.8250827728        0.0001040968
C             0.6757559438        0.5001755625        0.4999650077



     Writing output data file ./pp.save/
     NEW-OLD atomic charge density approx. for the potential
     extrapolated charge   34.70306, renormalised to   32.00000

     total cpu time spent up to now is       68.6 secs

     Self-consistent Calculation

     iteration #  1     ecut=    40.00 Ry     beta= 0.50
     Davidson diagonalization with overlap
     ethr =  1.00E-06,  avg # of iterations =  8.9

     total cpu time spent up to now is       73.8 secs

     total energy              =     -89.39652036 Ry
     Harris-Foulkes estimate   =     -87.77735153 Ry
     estimated scf accuracy    <       0.15323401 Ry

     iteration #  2     ecut=    40.00 Ry     beta= 0.50
     Davidson diagonalization with overlap
     ethr =  4.79E-04,  avg # of iterations =  4.0

     total cpu time spent up to now is       76.8 secs

     total energy              =     -89.79585106 Ry
     Harris-Foulkes estimate   =     -89.95752873 Ry
     estimated scf accuracy    <       0.63266482 Ry

     iteration #  3     ecut=    40.00 Ry     beta= 0.50
     Davidson diagonalization with overlap
     ethr =  4.79E-04,  avg # of iterations =  2.0

     total cpu time spent up to now is       78.5 secs

     total energy              =     -89.73790674 Ry
     Harris-Foulkes estimate   =     -89.81727674 Ry
     estimated scf accuracy    <       0.22850155 Ry

     iteration #  4     ecut=    40.00 Ry     beta= 0.50
     Davidson diagonalization with overlap
     ethr =  4.79E-04,  avg # of iterations =  2.0

     total cpu time spent up to now is       80.1 secs

     total energy              =     -89.73340008 Ry
     Harris-Foulkes estimate   =     -89.75436815 Ry
     estimated scf accuracy    <       0.03890307 Ry

     iteration #  5     ecut=    40.00 Ry     beta= 0.50
     Davidson diagonalization with overlap
     ethr =  1.22E-04,  avg # of iterations =  2.4

     total cpu time spent up to now is       82.0 secs

     total energy              =     -89.74275915 Ry
     Harris-Foulkes estimate   =     -89.74292301 Ry
     estimated scf accuracy    <       0.00027747 Ry

     iteration #  6     ecut=    40.00 Ry     beta= 0.50
     Davidson diagonalization with overlap
     ethr =  8.67E-07,  avg # of iterations =  3.0

     total cpu time spent up to now is       84.3 secs

     total energy              =     -89.74316487 Ry
     Harris-Foulkes estimate   =     -89.74304790 Ry
     estimated scf accuracy    <       0.00016018 Ry

     iteration #  7     ecut=    40.00 Ry     beta= 0.50
     Davidson diagonalization with overlap
     ethr =  5.01E-07,  avg # of iterations =  2.4

     total cpu time spent up to now is       86.4 secs

     total energy              =     -89.74293234 Ry
     Harris-Foulkes estimate   =     -89.74322072 Ry
     estimated scf accuracy    <       0.00066881 Ry

     iteration #  8     ecut=    40.00 Ry     beta= 0.50
     Davidson diagonalization with overlap
     ethr =  5.01E-07,  avg # of iterations =  2.3

     total cpu time spent up to now is       88.5 secs

     total energy              =     -89.74298809 Ry
     Harris-Foulkes estimate   =     -89.74301214 Ry
     estimated scf accuracy    <       0.00003736 Ry

     iteration #  9     ecut=    40.00 Ry     beta= 0.50
     Davidson diagonalization with overlap
     ethr =  1.17E-07,  avg # of iterations =  2.7

     total cpu time spent up to now is       90.7 secs

     total energy              =     -89.74300204 Ry
     Harris-Foulkes estimate   =     -89.74300292 Ry
     estimated scf accuracy    <       0.00000488 Ry

     iteration # 10     ecut=    40.00 Ry     beta= 0.50
     Davidson diagonalization with overlap
     ethr =  1.53E-08,  avg # of iterations =  1.2

     total cpu time spent up to now is       92.1 secs

     total energy              =     -89.74300085 Ry
     Harris-Foulkes estimate   =     -89.74300223 Ry
     estimated scf accuracy    <       0.00000253 Ry

     iteration # 11     ecut=    40.00 Ry     beta= 0.50
     Davidson diagonalization with overlap
     ethr =  7.91E-09,  avg # of iterations =  2.2

     total cpu time spent up to now is       94.1 secs

     End of self-consistent calculation

          k = 0.0000 0.0000 0.0000 (  1551 PWs)   bands (ev):

   -14.0434 -13.8321  -8.4064  -8.3532  -7.8709  -7.8097  -3.0613  -2.1776
    -1.8097  -1.4471  -0.7029   0.6449   2.4486   2.5211   3.3649   3.4475
     8.1306   8.2145  11.3336  11.4418

          k = 0.0001 0.0001 0.5795 (  1539 PWs)   bands (ev):

   -12.5559 -12.3532  -6.9985  -6.9455  -6.5047  -6.4444  -1.7372  -0.7094
    -0.4000  -0.2954   0.6455   1.7527   3.7304   3.8045   4.5770   4.6588
     8.9575   9.0266   9.1309   9.4162

          k = 0.0003 0.0002 1.1590 (  1532 PWs)   bands (ev):

    -8.1990  -8.0306  -2.8882  -2.8364  -2.5090  -2.4519  -1.0734  -1.0610
     1.9282   2.8169   2.8435   3.2902   3.3476   3.5379   3.5743   3.5970
     4.6893   5.9844   7.8905   7.9418

          k = 0.0004-0.3956-0.0001 (  1548 PWs)   bands (ev):

   -13.9435 -13.9353  -8.1715  -8.1577  -8.1177  -8.1079  -2.3138  -2.3113
    -1.4664  -1.4637  -0.6753  -0.6739   2.8815   2.9250   2.9732   3.0146
     9.3900   9.4286   9.5554   9.5824

          k = 0.0005-0.3954 0.5794 (  1536 PWs)   bands (ev):

   -12.4601 -12.4519  -6.7810  -6.7670  -6.7270  -6.7171  -1.0593  -1.0573
    -0.0549  -0.0516   0.6197   0.6225   4.1212   4.1628   4.1874   4.2274
     9.0883   9.0894  10.0543  10.0848

          k = 0.0006-0.3953 1.1589 (  1552 PWs)   bands (ev):

    -8.1203  -8.1118  -2.7205  -2.7081  -2.6682  -2.6602  -1.0587  -1.0513
     2.3657   2.3678   3.2079   3.2116   3.4018   3.4211   3.4643   3.4800
     5.3183   5.3224   7.9857   8.0125

          k =-0.3947 0.0004-0.0001 (  1548 PWs)   bands (ev):

   -13.9436 -13.9355  -8.1848  -8.1620  -8.1122  -8.0942  -2.3147  -2.3082
    -1.4664  -1.4626  -0.6856  -0.6828   2.9118   2.9434   2.9614   2.9983
     9.3493   9.3813   9.6009   9.6405

          k =-0.3946 0.0005 0.5794 (  1536 PWs)   bands (ev):

   -12.4602 -12.4520  -6.7928  -6.7709  -6.7220  -6.7049  -1.0604  -1.0545
    -0.0548  -0.0509   0.6118   0.6153   4.1192   4.1594   4.1960   4.2399
     9.0907   9.1018  10.0198  10.0452

          k =-0.3944 0.0006 1.1589 (  1552 PWs)   bands (ev):

    -8.1203  -8.1119  -2.7318  -2.7118  -2.6637  -2.6485  -1.0588  -1.0516
     2.3635   2.3683   3.2081   3.2134   3.4031   3.4222   3.4636   3.4776
     5.3160   5.3202   7.9430   7.9696

          k =-0.3943-0.3952-0.0002 (  1532 PWs)   bands (ev):

   -13.9402 -13.9320  -8.5227  -8.4780  -7.7738  -7.7212  -2.2027  -2.1919
    -1.8978  -1.8923  -0.0618  -0.0381   1.7197   1.7788   3.9258   3.9660
     7.7818   7.8521  11.5237  11.6224

          k =-0.3942-0.3951 0.5793 (  1560 PWs)   bands (ev):

   -12.4570 -12.4488  -7.1085  -7.0638  -6.4122  -6.3603  -0.9695  -0.9597
    -0.4592  -0.4548   1.1703   1.1908   3.1081   3.1677   5.0124   5.0558
     8.7452   8.8067   9.2794   9.2854

          k =-0.3941-0.3949 1.1588 (  1552 PWs)   bands (ev):

    -8.1180  -8.1095  -2.9760  -2.9317  -2.4343  -2.3847  -1.0664  -1.0591
     2.4123   2.4190   3.1479   3.1521   3.3076   3.3539   3.5004   3.5502
     5.4587   5.4695   7.4366   7.4762

     the Fermi energy is     5.0104 ev

!    total energy              =     -89.74300146 Ry
     Harris-Foulkes estimate   =     -89.74300149 Ry
     estimated scf accuracy    <       0.00000003 Ry

     The total energy is the sum of the following terms:

     one-electron contribution =     -28.37897924 Ry
     hartree contribution      =      29.33387024 Ry
     xc contribution           =     -26.36898337 Ry
     ewald contribution        =     -64.32920348 Ry
     smearing contrib. (-TS)   =       0.00029440 Ry

     convergence has been achieved in  11 iterations

     Forces acting on atoms (cartesian axes, Ry/au):

     atom    1 type  1   force =     0.07433447    0.00162863    0.00000502
     atom    2 type  1   force =    -0.00145196   -0.06931615   -0.00006705
     atom    3 type  1   force =     0.07159246    0.00142790   -0.00028598
     atom    4 type  1   force =    -0.00237426   -0.06665855    0.00032696
     atom    5 type  1   force =     0.00081338    0.06910217    0.00007307
     atom    6 type  1   force =    -0.07229127   -0.00073387   -0.00000507
     atom    7 type  1   force =     0.00031086    0.06577641   -0.00032762
     atom    8 type  1   force =    -0.07093369   -0.00122655    0.00028067

     Total force =     0.198177     Total SCF correction =     0.000536


     Computing stress (Cartesian axis) and pressure

          total   stress  (Ry/bohr**3)                   (kbar)     P=     -292.18
  -0.00120432  -0.00002928   0.00000314         -177.16       -4.31        0.46
  -0.00002928  -0.00111448   0.00000289           -4.31     -163.95        0.43
   0.00000314   0.00000289  -0.00363978            0.46        0.43     -535.43


     number of scf cycles    =   7
     number of bfgs steps    =   6

     enthalpy old            =     -89.6687920438 Ry
     enthalpy new            =     -89.7429655495 Ry

     CASE: enthalpy_new < enthalpy_old

     new trust radius        =       0.4054282002 bohr
     new conv_thr            =       0.0000007433 Ry

     new unit-cell volume =    593.47742 a.u.^3 (    87.94428 Ang^3 )
     density =      1.81264 g/cm^3

CELL_PARAMETERS (bohr)
  13.558926108   0.016720026  -0.003482214
   0.016692968  13.550159741  -0.003258939
  -0.000469505  -0.000441730   3.230242906

ATOMIC_POSITIONS (crystal)
C             0.8420428106        0.0000910668       -0.0006297918
C             0.4996602527        0.6575487216        0.5007737606
C             0.3429118818        0.4999519974        0.5001963635
C             0.0002506215        0.1563968543       -0.0003685731
C             0.5001824477        0.3425931967        0.4992396207
C             0.1579681278       -0.0003114115        0.0006126841
C             0.0001595314        0.8435763427        0.0003528750
C             0.6568233265        0.5001532320        0.4998240610



     Writing output data file ./pp.save/
     NEW-OLD atomic charge density approx. for the potential
     extrapolated charge   35.51409, renormalised to   32.00000

     total cpu time spent up to now is       94.2 secs

     Self-consistent Calculation

     iteration #  1     ecut=    40.00 Ry     beta= 0.50
     Davidson diagonalization with overlap
     ethr =  1.00E-06,  avg # of iterations = 10.1

     total cpu time spent up to now is      101.5 secs

     total energy              =     -88.83315798 Ry
     Harris-Foulkes estimate   =     -83.37428681 Ry
     estimated scf accuracy    <       0.38669033 Ry

     iteration #  2     ecut=    40.00 Ry     beta= 0.50
     Davidson diagonalization with overlap
     ethr =  1.21E-03,  avg # of iterations =  4.3

     total cpu time spent up to now is      105.2 secs

     total energy              =     -90.04100622 Ry
     Harris-Foulkes estimate   =     -90.49316333 Ry
     estimated scf accuracy    <       1.84005315 Ry

     iteration #  3     ecut=    40.00 Ry     beta= 0.50
     Davidson diagonalization with overlap
     ethr =  1.21E-03,  avg # of iterations =  2.0

     total cpu time spent up to now is      107.2 secs

     total energy              =     -89.84462019 Ry
     Harris-Foulkes estimate   =     -90.09306154 Ry
     estimated scf accuracy    <       0.75051086 Ry

     iteration #  4     ecut=    40.00 Ry     beta= 0.50
     Davidson diagonalization with overlap
     ethr =  1.21E-03,  avg # of iterations =  2.0

     total cpu time spent up to now is      109.2 secs

     total energy              =     -89.82862390 Ry
     Harris-Foulkes estimate   =     -89.88855047 Ry
     estimated scf accuracy    <       0.16836890 Ry

     iteration #  5     ecut=    40.00 Ry     beta= 0.50
     Davidson diagonalization with overlap
     ethr =  5.26E-04,  avg # of iterations =  1.8

     total cpu time spent up to now is      111.0 secs

     total energy              =     -89.82611190 Ry
     Harris-Foulkes estimate   =     -89.84176478 Ry
     estimated scf accuracy    <       0.03122919 Ry

     iteration #  6     ecut=    40.00 Ry     beta= 0.50
     Davidson diagonalization with overlap
     ethr =  9.76E-05,  avg # of iterations =  2.8

     total cpu time spent up to now is      113.6 secs

     total energy              =     -89.83431748 Ry
     Harris-Foulkes estimate   =     -89.83436681 Ry
     estimated scf accuracy    <       0.00019752 Ry

     iteration #  7     ecut=    40.00 Ry     beta= 0.50
     Davidson diagonalization with overlap
     ethr =  6.17E-07,  avg # of iterations =  4.0

     total cpu time spent up to now is      116.8 secs

     total energy              =     -89.83436044 Ry
     Harris-Foulkes estimate   =     -89.83443151 Ry
     estimated scf accuracy    <       0.00018895 Ry

     iteration #  8     ecut=    40.00 Ry     beta= 0.50
     Davidson diagonalization with overlap
     ethr =  5.90E-07,  avg # of iterations =  2.6

     total cpu time spent up to now is      119.1 secs

     total energy              =     -89.83430779 Ry
     Harris-Foulkes estimate   =     -89.83436096 Ry
     estimated scf accuracy    <       0.00008889 Ry

     iteration #  9     ecut=    40.00 Ry     beta= 0.50
     Davidson diagonalization with overlap
     ethr =  2.78E-07,  avg # of iterations =  3.9

     total cpu time spent up to now is      122.4 secs

     total energy              =     -89.83433426 Ry
     Harris-Foulkes estimate   =     -89.83432308 Ry
     estimated scf accuracy    <       0.00008742 Ry

     iteration # 10     ecut=    40.00 Ry     beta= 0.50
     Davidson diagonalization with overlap
     ethr =  2.73E-07,  avg # of iterations =  1.0

     total cpu time spent up to now is      123.9 secs

     total energy              =     -89.83427272 Ry
     Harris-Foulkes estimate   =     -89.83433432 Ry
     estimated scf accuracy    <       0.00010114 Ry

     iteration # 11     ecut=    40.00 Ry     beta= 0.50
     Davidson diagonalization with overlap
     ethr =  2.73E-07,  avg # of iterations =  3.9

     total cpu time spent up to now is      127.1 secs

     total energy              =     -89.83428656 Ry
     Harris-Foulkes estimate   =     -89.83428899 Ry
     estimated scf accuracy    <       0.00000891 Ry

     iteration # 12     ecut=    40.00 Ry     beta= 0.50
     Davidson diagonalization with overlap
     ethr =  2.78E-08,  avg # of iterations =  3.6

     total cpu time spent up to now is      130.3 secs

     total energy              =     -89.83428343 Ry
     Harris-Foulkes estimate   =     -89.83429729 Ry
     estimated scf accuracy    <       0.00001870 Ry

     iteration # 13     ecut=    40.00 Ry     beta= 0.50
     Davidson diagonalization with overlap
     ethr =  2.78E-08,  avg # of iterations =  3.8

     total cpu time spent up to now is      133.7 secs

     total energy              =     -89.83428491 Ry
     Harris-Foulkes estimate   =     -89.83429448 Ry
     estimated scf accuracy    <       0.00001745 Ry

     iteration # 14     ecut=    40.00 Ry     beta= 0.50
     Davidson diagonalization with overlap
     ethr =  2.78E-08,  avg # of iterations =  2.3

     total cpu time spent up to now is      136.2 secs

     total energy              =     -89.83428670 Ry
     Harris-Foulkes estimate   =     -89.83428714 Ry
     estimated scf accuracy    <       0.00000116 Ry

     iteration # 15     ecut=    40.00 Ry     beta= 0.50
     Davidson diagonalization with overlap
     ethr =  3.63E-09,  avg # of iterations =  2.2

     total cpu time spent up to now is      138.5 secs

     End of self-consistent calculation

          k = 0.0000 0.0000 0.0000 (  1551 PWs)   bands (ev):

   -16.5426 -15.9892 -10.3297 -10.2619  -9.7704  -9.7384  -4.1755  -3.7054
[...]
     Davidson diagonalization with overlap
     ethr =  9.00E-07,  avg # of iterations =  3.1

     total cpu time spent up to now is     1089.4 secs

     total energy              =     -89.83904264 Ry
     Harris-Foulkes estimate   =     -89.83955341 Ry
     estimated scf accuracy    <       0.00126726 Ry

     iteration #205     ecut=    40.00 Ry     beta= 0.50
     Davidson diagonalization with overlap
     ethr =  9.00E-07,  avg # of iterations =  3.3

     total cpu time spent up to now is     1097.8 secs

     total energy              =     -89.83902172 Ry
     Harris-Foulkes estimate   =     -89.83914100 Ry
     estimated scf accuracy    <       0.00028369 Ry

     iteration #206     ecut=    40.00 Ry     beta= 0.50
     Davidson diagonalization with overlap
     ethr =  8.87E-07,  avg # of iterations =  2.7

     total cpu time spent up to now is     1104.9 secs

     total energy              =     -89.83881964 Ry
     Harris-Foulkes estimate   =     -89.83898822 Ry
     estimated scf accuracy    <       0.00050720 Ry

     iteration #207     ecut=    40.00 Ry     beta= 0.50
     Davidson diagonalization with overlap
     ethr =  8.87E-07,  avg # of iterations =  2.8

     total cpu time spent up to now is     1112.1 secs

     total energy              =     -89.83864056 Ry
     Harris-Foulkes estimate   =     -89.83871592 Ry
     estimated scf accuracy    <       0.00193048 Ry

     iteration #208     ecut=    40.00 Ry     beta= 0.50
     Davidson diagonalization with overlap
     ethr =  8.87E-07,  avg # of iterations =  1.0

     total cpu time spent up to now is     1116.9 secs

     total energy              =     -89.83950839 Ry
     Harris-Foulkes estimate   =     -89.83863664 Ry
     estimated scf accuracy    <       0.00233661 Ry

     iteration #209     ecut=    40.00 Ry     beta= 0.50
     Davidson diagonalization with overlap
     ethr =  8.87E-07,  avg # of iterations =  2.9

     total cpu time spent up to now is     1124.9 secs

     total energy              =     -89.83980773 Ry
     Harris-Foulkes estimate   =     -89.83910620 Ry
     estimated scf accuracy    <       0.00027800 Ry

     iteration #210     ecut=    40.00 Ry     beta= 0.50
     Davidson diagonalization with overlap
     ethr =  8.69E-07,  avg # of iterations =  3.7

     total cpu time spent up to now is     1134.3 secs

     total energy              =     -89.84015172 Ry
     Harris-Foulkes estimate   =     -89.83992010 Ry
     estimated scf accuracy    <       0.00234329 Ry

     iteration #211     ecut=    40.00 Ry     beta= 0.50
     Davidson diagonalization with overlap
     ethr =  8.69E-07,  avg # of iterations =  1.0

     total cpu time spent up to now is     1139.1 secs

     total energy              =     -89.83961392 Ry
     Harris-Foulkes estimate   =     -89.84016094 Ry
     estimated scf accuracy    <       0.00300904 Ry

     iteration #212     ecut=    40.00 Ry     beta= 0.50
     Davidson diagonalization with overlap
     ethr =  8.69E-07,  avg # of iterations =  2.5

     total cpu time spent up to now is     1146.3 secs

     total energy              =     -89.83985422 Ry
     Harris-Foulkes estimate   =     -89.83965895 Ry
     estimated scf accuracy    <       0.00158448 Ry

     iteration #213     ecut=    40.00 Ry     beta= 0.50
     Davidson diagonalization with overlap
     ethr =  8.69E-07,  avg # of iterations =  1.2

     total cpu time spent up to now is     1151.4 secs

     total energy              =     -89.83954005 Ry
     Harris-Foulkes estimate   =     -89.83986370 Ry
     estimated scf accuracy    <       0.00216594 Ry

     iteration #214     ecut=    40.00 Ry     beta= 0.50
     Davidson diagonalization with overlap
     ethr =  8.69E-07,  avg # of iterations =  2.0

     total cpu time spent up to now is     1157.8 secs

     total energy              =     -89.83919987 Ry
     Harris-Foulkes estimate   =     -89.83956241 Ry
     estimated scf accuracy    <       0.00129443 Ry

     iteration #215     ecut=    40.00 Ry     beta= 0.50
     Davidson diagonalization with overlap
     ethr =  8.69E-07,  avg # of iterations =  3.0

     total cpu time spent up to now is     1166.1 secs

     total energy              =     -89.83930027 Ry
     Harris-Foulkes estimate   =     -89.83925026 Ry
     estimated scf accuracy    <       0.00043930 Ry

     iteration #216     ecut=    40.00 Ry     beta= 0.50
     Davidson diagonalization with overlap
     ethr =  8.69E-07,  avg # of iterations =  1.0

     total cpu time spent up to now is     1171.0 secs

     total energy              =     -89.83933348 Ry
     Harris-Foulkes estimate   =     -89.83930183 Ry
     estimated scf accuracy    <       0.00054932 Ry

     iteration #217     ecut=    40.00 Ry     beta= 0.50
     Davidson diagonalization with overlap
     ethr =  8.69E-07,  avg # of iterations =  1.0

     total cpu time spent up to now is     1176.0 secs

     total energy              =     -89.83887354 Ry
     Harris-Foulkes estimate   =     -89.83933405 Ry
     estimated scf accuracy    <       0.00062670 Ry

     iteration #218     ecut=    40.00 Ry     beta= 0.50
     Davidson diagonalization with overlap
     ethr =  8.69E-07,  avg # of iterations =  3.9

     total cpu time spent up to now is     1186.0 secs

     total energy              =     -89.84074026 Ry
     Harris-Foulkes estimate   =     -89.83861998 Ry
     estimated scf accuracy    <       0.00239610 Ry

     iteration #219     ecut=    40.00 Ry     beta= 0.50
     Davidson diagonalization with overlap
     ethr =  8.69E-07,  avg # of iterations =  4.2

     total cpu time spent up to now is     1197.0 secs

     total energy              =     -89.83953371 Ry
     Harris-Foulkes estimate   =     -89.83954864 Ry
     estimated scf accuracy    <       0.00122335 Ry

     iteration #220     ecut=    40.00 Ry     beta= 0.50
     Davidson diagonalization with overlap
     ethr =  8.69E-07,  avg # of iterations =  1.0

     total cpu time spent up to now is     1201.9 secs

     total energy              =     -89.83962944 Ry
     Harris-Foulkes estimate   =     -89.83953431 Ry
     estimated scf accuracy    <       0.00118301 Ry

     iteration #221     ecut=    40.00 Ry     beta= 0.50
     Davidson diagonalization with overlap
     ethr =  8.69E-07,  avg # of iterations =  1.0

     total cpu time spent up to now is     1207.0 secs

     total energy              =     -89.83967385 Ry
     Harris-Foulkes estimate   =     -89.83963256 Ry
     estimated scf accuracy    <       0.00146761 Ry

     iteration #222     ecut=    40.00 Ry     beta= 0.50
     Davidson diagonalization with overlap
     ethr =  8.69E-07,  avg # of iterations =  1.0

     total cpu time spent up to now is     1212.0 secs

     total energy              =     -89.83925443 Ry
     Harris-Foulkes estimate   =     -89.83967448 Ry
     estimated scf accuracy    <       0.00159460 Ry

     iteration #223     ecut=    40.00 Ry     beta= 0.50
     Davidson diagonalization with overlap
     ethr =  8.69E-07,  avg # of iterations =  2.8

     total cpu time spent up to now is     1220.1 secs

     total energy              =     -89.83929867 Ry
     Harris-Foulkes estimate   =     -89.83930799 Ry
     estimated scf accuracy    <       0.00057777 Ry

     iteration #224     ecut=    40.00 Ry     beta= 0.50
     Davidson diagonalization with overlap
     ethr =  8.69E-07,  avg # of iterations =  1.0

     total cpu time spent up to now is     1225.3 secs

     total energy              =     -89.83941588 Ry
     Harris-Foulkes estimate   =     -89.83929901 Ry
     estimated scf accuracy    <       0.00055371 Ry

     iteration #225     ecut=    40.00 Ry     beta= 0.50
     Davidson diagonalization with overlap
     ethr =  8.69E-07,  avg # of iterations =  1.0

     total cpu time spent up to now is     1230.3 secs

     total energy              =     -89.83940487 Ry
     Harris-Foulkes estimate   =     -89.83942253 Ry
     estimated scf accuracy    <       0.00086619 Ry

     iteration #226     ecut=    40.00 Ry     beta= 0.50
     Davidson diagonalization with overlap
     ethr =  8.69E-07,  avg # of iterations =  1.0

     total cpu time spent up to now is     1235.5 secs

     total energy              =     -89.83918271 Ry
     Harris-Foulkes estimate   =     -89.83940509 Ry
     estimated scf accuracy    <       0.00082352 Ry

     iteration #227     ecut=    40.00 Ry     beta= 0.50
     Davidson diagonalization with overlap
     ethr =  8.69E-07,  avg # of iterations =  2.2

     total cpu time spent up to now is     1242.4 secs

     total energy              =     -89.83903344 Ry
     Harris-Foulkes estimate   =     -89.83920462 Ry
     estimated scf accuracy    <       0.00036766 Ry

     iteration #228     ecut=    40.00 Ry     beta= 0.50
     Davidson diagonalization with overlap
     ethr =  8.69E-07,  avg # of iterations =  2.8

     total cpu time spent up to now is     1250.6 secs

     total energy              =     -89.83892473 Ry
     Harris-Foulkes estimate   =     -89.83900542 Ry
     estimated scf accuracy    <       0.00046619 Ry

     iteration #229     ecut=    40.00 Ry     beta= 0.50
     Davidson diagonalization with overlap
     ethr =  8.69E-07,  avg # of iterations =  1.0

     total cpu time spent up to now is     1255.7 secs

     total energy              =     -89.83851496 Ry
     Harris-Foulkes estimate   =     -89.83890585 Ry
     estimated scf accuracy    <       0.00087265 Ry

     iteration #230     ecut=    40.00 Ry     beta= 0.50
     Davidson diagonalization with overlap
     ethr =  8.69E-07,  avg # of iterations =  3.4

     total cpu time spent up to now is     1265.2 secs

     total energy              =     -89.84104758 Ry
     Harris-Foulkes estimate   =     -89.83819458 Ry
     estimated scf accuracy    <       0.00164743 Ry

     iteration #231     ecut=    40.00 Ry     beta= 0.50
     Davidson diagonalization with overlap
     ethr =  8.69E-07,  avg # of iterations =  4.4

     total cpu time spent up to now is     1277.5 secs

     total energy              =     -89.84002985 Ry
     Harris-Foulkes estimate   =     -89.83992495 Ry
     estimated scf accuracy    <       0.00235126 Ry

     iteration #232     ecut=    40.00 Ry     beta= 0.50
     Davidson diagonalization with overlap
     ethr =  8.69E-07,  avg # of iterations =  1.0

     total cpu time spent up to now is     1282.8 secs

     total energy              =     -89.84026676 Ry
     Harris-Foulkes estimate   =     -89.84003213 Ry
     estimated scf accuracy    <       0.00264864 Ry

     iteration #233     ecut=    40.00 Ry     beta= 0.50
     Davidson diagonalization with overlap
     ethr =  8.69E-07,  avg # of iterations =  1.8

     total cpu time spent up to now is     1289.3 secs

     total energy              =     -89.83993886 Ry
     Harris-Foulkes estimate   =     -89.84027500 Ry
     estimated scf accuracy    <       0.00333154 Ry

     iteration #234     ecut=    40.00 Ry     beta= 0.50
     Davidson diagonalization with overlap
     ethr =  8.69E-07,  avg # of iterations =  1.9

     total cpu time spent up to now is     1296.0 secs

     total energy              =     -89.83982216 Ry
     Harris-Foulkes estimate   =     -89.83995285 Ry
     estimated scf accuracy    <       0.00245172 Ry

     iteration #235     ecut=    40.00 Ry     beta= 0.50
     Davidson diagonalization with overlap
     ethr =  8.69E-07,  avg # of iterations =  1.0

     total cpu time spent up to now is     1301.4 secs

     total energy              =     -89.83973749 Ry
     Harris-Foulkes estimate   =     -89.83982556 Ry
     estimated scf accuracy    <       0.00207424 Ry

     iteration #236     ecut=    40.00 Ry     beta= 0.50
     Davidson diagonalization with overlap
     ethr =  8.69E-07,  avg # of iterations =  1.0

     total cpu time spent up to now is     1306.8 secs

     total energy              =     -89.83857510 Ry
     Harris-Foulkes estimate   =     -89.83973948 Ry
     estimated scf accuracy    <       0.00180470 Ry

     iteration #237     ecut=    40.00 Ry     beta= 0.50
     Davidson diagonalization with overlap
     ethr =  8.69E-07,  avg # of iterations =  4.1

     total cpu time spent up to now is     1318.4 secs

     total energy              =     -89.83853854 Ry
     Harris-Foulkes estimate   =     -89.83873972 Ry
     estimated scf accuracy    <       0.00179812 Ry

     iteration #238     ecut=    40.00 Ry     beta= 0.50
     Davidson diagonalization with overlap
     ethr =  8.69E-07,  avg # of iterations =  1.2

     total cpu time spent up to now is     1324.1 secs

     total energy              =     -89.83650177 Ry
     Harris-Foulkes estimate   =     -89.83850304 Ry
     estimated scf accuracy    <       0.00281008 Ry

     iteration #239     ecut=    40.00 Ry     beta= 0.50
     Davidson diagonalization with overlap
     ethr =  8.69E-07,  avg # of iterations =  5.4

     total cpu time spent up to now is     1338.8 secs

     total energy              =     -89.84246652 Ry
     Harris-Foulkes estimate   =     -89.84038160 Ry
     estimated scf accuracy    <       0.00173729 Ry

     iteration #240     ecut=    40.00 Ry     beta= 0.50
     Davidson diagonalization with overlap
     ethr =  8.69E-07,  avg # of iterations =  7.8

     total cpu time spent up to now is     1358.5 secs

     total energy              =     -89.84130137 Ry
     Harris-Foulkes estimate   =     -89.84352728 Ry
     estimated scf accuracy    <       0.01116652 Ry

     iteration #241     ecut=    40.00 Ry     beta= 0.50
     Davidson diagonalization with overlap
     ethr =  8.69E-07,  avg # of iterations =  3.6

     total cpu time spent up to now is     1368.9 secs

     total energy              =     -89.83959762 Ry
     Harris-Foulkes estimate   =     -89.84144286 Ry
     estimated scf accuracy    <       0.00632050 Ry

     iteration #242     ecut=    40.00 Ry     beta= 0.50
     Davidson diagonalization with overlap
     ethr =  8.69E-07,  avg # of iterations =  3.5

     total cpu time spent up to now is     1379.4 secs

     total energy              =     -89.84066049 Ry
     Harris-Foulkes estimate   =     -89.83982256 Ry
     estimated scf accuracy    <       0.00204572 Ry

     iteration #243     ecut=    40.00 Ry     beta= 0.50
     Davidson diagonalization with overlap
     ethr =  8.69E-07,  avg # of iterations =  3.1

     total cpu time spent up to now is     1388.8 secs

     total energy              =     -89.84080825 Ry
     Harris-Foulkes estimate   =     -89.84077044 Ry
     estimated scf accuracy    <       0.00462644 Ry

     iteration #244     ecut=    40.00 Ry     beta= 0.50
     Davidson diagonalization with overlap
     ethr =  8.69E-07,  avg # of iterations =  1.0

     total cpu time spent up to now is     1394.4 secs

     total energy              =     -89.83964972 Ry
     Harris-Foulkes estimate   =     -89.84080875 Ry
     estimated scf accuracy    <       0.00473845 Ry

     iteration #245     ecut=    40.00 Ry     beta= 0.50
     Davidson diagonalization with overlap
     ethr =  8.69E-07,  avg # of iterations =  3.2

     total cpu time spent up to now is     1404.1 secs

     total energy              =     -89.83880872 Ry
     Harris-Foulkes estimate   =     -89.83977069 Ry
     estimated scf accuracy    <       0.00192293 Ry

     iteration #246     ecut=    40.00 Ry     beta= 0.50
     Davidson diagonalization with overlap
     ethr =  8.69E-07,  avg # of iterations =  4.2

     total cpu time spent up to now is     1415.7 secs

     total energy              =     -89.83887203 Ry
     Harris-Foulkes estimate   =     -89.83905104 Ry
     estimated scf accuracy    <       0.00035172 Ry

     iteration #247     ecut=    40.00 Ry     beta= 0.50
     Davidson diagonalization with overlap
     ethr =  8.69E-07,  avg # of iterations =  2.8

     total cpu time spent up to now is     1424.9 secs

     total energy              =     -89.83855537 Ry
     Harris-Foulkes estimate   =     -89.83869121 Ry
     estimated scf accuracy    <       0.00207717 Ry

     iteration #248     ecut=    40.00 Ry     beta= 0.50
     Davidson diagonalization with overlap
     ethr =  8.69E-07,  avg # of iterations =  1.0

     total cpu time spent up to now is     1430.5 secs

     total energy              =     -89.83934209 Ry
     Harris-Foulkes estimate   =     -89.83854272 Ry
     estimated scf accuracy    <       0.00269040 Ry

     iteration #249     ecut=    40.00 Ry     beta= 0.50
     Davidson diagonalization with overlap
     ethr =  8.69E-07,  avg # of iterations =  3.1

     total cpu time spent up to now is     1440.1 secs

     total energy              =     -89.83899858 Ry
     Harris-Foulkes estimate   =     -89.83903865 Ry
     estimated scf accuracy    <       0.00035546 Ry

     iteration #250     ecut=    40.00 Ry     beta= 0.50
     Davidson diagonalization with overlap
     ethr =  8.69E-07,  avg # of iterations =  1.0

     total cpu time spent up to now is     1445.7 secs

     total energy              =     -89.83887719 Ry
     Harris-Foulkes estimate   =     -89.83899429 Ry
     estimated scf accuracy    <       0.00048330 Ry

     End of self-consistent calculation

     convergence NOT achieved after 250 iterations: stopping

     Writing output data file ./pp.save/
 
     init_run     :      0.46s CPU      0.51s WALL (       1 calls)
     electrons    :   1426.44s CPU   1444.33s WALL (       9 calls)
     update_pot   :      0.05s CPU      0.08s WALL (       8 calls)
     forces       :      0.13s CPU      0.14s WALL (       8 calls)
     stress       :      0.10s CPU      0.24s WALL (       8 calls)

     Called by init_run:
     wfcinit      :      0.42s CPU      0.44s WALL (       1 calls)
     potinit      :      0.02s CPU      0.02s WALL (       1 calls)
     hinit0       :      0.02s CPU      0.03s WALL (       1 calls)

     Called by electrons:
     c_bands      :   1376.45s CPU   1392.87s WALL (     337 calls)
     sum_band     :     36.31s CPU     37.01s WALL (     337 calls)
     v_of_rho     :      2.51s CPU      2.54s WALL (     345 calls)
     newd         :      0.55s CPU      0.56s WALL (     345 calls)
     mix_rho      :      9.59s CPU      9.66s WALL (     337 calls)

     Called by c_bands:
     init_us_2    :      0.10s CPU      0.11s WALL (    8292 calls)
     cegterg      :   1373.37s CPU   1387.89s WALL (    4044 calls)

     Called by sum_band:
     sum_band:bec :      0.06s CPU      0.06s WALL (    4044 calls)
     addusdens    :      0.04s CPU      0.04s WALL (     337 calls)

     Called by *egterg:
     h_psi        :    165.56s CPU    168.69s WALL (   14488 calls)
     s_psi        :      0.29s CPU      0.30s WALL (   14488 calls)
     g_psi        :      0.02s CPU      0.02s WALL (   10432 calls)
     cdiaghg      :    494.05s CPU    497.59s WALL (   14368 calls)

     Called by h_psi:
     h_psi:calbec :     14.46s CPU     14.64s WALL (   14488 calls)
     vloc_psi     :    150.61s CPU    153.56s WALL (   14488 calls)
     add_vuspsi   :      0.39s CPU      0.40s WALL (   14488 calls)

     General routines
     calbec       :     18.84s CPU     19.09s WALL (   19012 calls)
     fft          :      1.67s CPU      1.70s WALL (    3868 calls)
     ffts         :      0.11s CPU      0.11s WALL (     337 calls)
     fftw         :    180.97s CPU    184.48s WALL (  485854 calls)
     davcio       :      0.00s CPU      0.00s WALL (      30 calls)
 
     Parallel routines
     fft_scatt_xy :      1.29s CPU      1.32s WALL (  490059 calls)
     fft_scatt_yz :    177.15s CPU    180.63s WALL (  490059 calls)
 
     PWSCF        :  23m47.51s CPU  24m 6.06s WALL

 
   This run was terminated on:  20:26:31   6Jul2022            

=------------------------------------------------------------------------------=
   JOB DONE.
=------------------------------------------------------------------------------=
