
     Program PWSCF v.6.5 starts on  7Jul2022 at 13:51:45 

     This program is part of the open-source Quantum ESPRESSO suite
     for quantum simulation of materials; please cite
         "P. Giannozzi et al., J. Phys.:Condens. Matter 21 395502 (2009);
         "P. Giannozzi et al., J. Phys.:Condens. Matter 29 465901 (2017);
          URL http://www.quantum-espresso.org", 
     in publications or presentations arising from this work. More details at
     http://www.quantum-espresso.org/quote

     Parallel version (MPI), running on    96 processors

     MPI processes distributed on     2 nodes
     R & G space division:  proc/nbgrp/npool/nimage =      96
     Waiting for input...
     Reading input from standard input
     Message from routine read_cards :
     DEPRECATED: no units specified in CELL_PARAMETERS card

     Current dimensions of program PWSCF are:
     Max number of different atomic species (ntypx) = 10
     Max number of k-points (npk) =  40000
     Max angular momentum in pseudopotentials (lmaxx) =  3

     Subspace diagonalization in iterative solution of the eigenvalue problem:
     one sub-group per band group will be used
     scalapack distributed-memory algorithm (size of sub-group:  9*  9 procs)

 
     Parallelization info
     --------------------
     sticks:   dense  smooth     PW     G-vecs:    dense   smooth      PW
     Min          16      16      5                  204      204      35
     Max          17      17      6                  207      207      37
     Sum        1565    1565    499                19691    19691    3493
 


     bravais-lattice index     =            0
     lattice parameter (alat)  =      13.3322  a.u.
     unit-cell volume          =     574.6946 (a.u.)^3
     number of atoms/cell      =            8
     number of atomic types    =            1
     number of electrons       =        32.00
     number of Kohn-Sham states=           20
     kinetic-energy cutoff     =      40.0000  Ry
     charge density cutoff     =     160.0000  Ry
     convergence threshold     =      1.0E-06
     mixing beta               =       0.5000
     number of iterations used =            8  plain     mixing
     Exchange-correlation=  SLA  PW   PBE  PBE
                           (   1   4   3   4   0   0   0)
     nstep                     =          250


     celldm(1)=  13.332177  celldm(2)=   0.000000  celldm(3)=   0.000000
     celldm(4)=   0.000000  celldm(5)=   0.000000  celldm(6)=   0.000000

     crystal axes: (cart. coord. in units of alat)
               a(1) = (   0.999972  -0.007516   0.000008 )  
               a(2) = (   0.010748   0.691995   0.000165 )  
               a(3) = (   0.000008  -0.000098   0.350423 )  

     reciprocal axes: (cart. coord. in units 2 pi/alat)
               b(1) = (  0.999912 -0.015531 -0.000026 )  
               b(2) = (  0.010860  1.444928  0.000402 )  
               b(3) = ( -0.000027 -0.000680  2.853695 )  


     PseudoPot. # 1 for C  read from file:
     ./C.pbe-van_bm.upf
     MD5 check sum: 1a69bf6b8db32088f5b2163dbdb77a27
     Pseudo is Ultrasoft, Zval =  4.0
     Generated by new atomic code, or converted to UPF format
     Using radial grid of  721 points,  4 beta functions with: 
                l(1) =   0
                l(2) =   0
                l(3) =   1
                l(4) =   1
     Q(r) pseudized with  8 coefficients,  rinner =    0.800   0.800   0.800


     atomic species   valence    mass     pseudopotential
        C              4.00    12.00000     C ( 1.00)

     No symmetry found



   Cartesian axes

     site n.     atom                  positions (alat units)
         1           C   tau(   1) = (   0.7790871   0.6654962   0.2412000  )
         2           C   tau(   2) = (   0.7039836   0.7414495   0.0659871  )
         3           C   tau(   3) = (   0.8968144   0.5145016   0.2409451  )
         4           C   tau(   4) = (   0.3188459   0.1013057   0.2437855  )
         5           C   tau(   5) = (   0.3465666   0.2229189   0.0685619  )
         6           C   tau(   6) = (   0.3184014   0.4648401   0.0687437  )
         7           C   tau(   7) = (   0.3198579   0.5684887   0.2439428  )
         8           C   tau(   8) = (   0.5474711   0.1755141   0.0654039  )

     number of k points=    12  Marzari-Vanderbilt smearing, width (Ry)=  0.0200
                       cart. coord. in units 2pi/alat
        k(    1) = (   0.0000000   0.0000000   0.0000000), wk =   0.1250000
        k(    2) = (  -0.0000066  -0.0001700   0.7134236), wk =   0.2500000
        k(    3) = (   0.0000133   0.0003400  -1.4268473), wk =   0.1250000
        k(    4) = (  -0.0054299  -0.7224641  -0.0002009), wk =   0.1250000
        k(    5) = (  -0.0054366  -0.7226342   0.7132227), wk =   0.2500000
        k(    6) = (  -0.0054167  -0.7221241  -1.4270482), wk =   0.1250000
        k(    7) = (  -0.4999558   0.0077656   0.0000129), wk =   0.1250000
        k(    8) = (  -0.4999624   0.0075956   0.7134365), wk =   0.2500000
        k(    9) = (  -0.4999425   0.0081056  -1.4268344), wk =   0.1250000
        k(   10) = (  -0.5053857  -0.7146986  -0.0001881), wk =   0.1250000
        k(   11) = (  -0.5053923  -0.7148686   0.7132356), wk =   0.2500000
        k(   12) = (  -0.5053724  -0.7143585  -1.4270353), wk =   0.1250000

     Dense  grid:    19691 G-vectors     FFT dimensions: (  54,  40,  20)

     Estimated max dynamical RAM per process >       2.42 MB

     Estimated total dynamical RAM >     231.89 MB

     Initial potential from superposition of free atoms

     starting charge   31.99968, renormalised to   32.00000
     Starting wfcs are   32 randomized atomic wfcs

     total cpu time spent up to now is        1.8 secs

     Self-consistent Calculation

     iteration #  1     ecut=    40.00 Ry     beta= 0.50
     Davidson diagonalization with overlap
     ethr =  1.00E-02,  avg # of iterations =  2.0

     total cpu time spent up to now is        2.5 secs

     total energy              =     -90.30081302 Ry
     Harris-Foulkes estimate   =     -90.64181927 Ry
     estimated scf accuracy    <       0.68305544 Ry

     iteration #  2     ecut=    40.00 Ry     beta= 0.50
     Davidson diagonalization with overlap
     ethr =  2.13E-03,  avg # of iterations =  2.8

     total cpu time spent up to now is        3.2 secs

     total energy              =     -90.27500838 Ry
     Harris-Foulkes estimate   =     -90.50558009 Ry
     estimated scf accuracy    <       0.56555194 Ry

     iteration #  3     ecut=    40.00 Ry     beta= 0.50
     Davidson diagonalization with overlap
     ethr =  1.77E-03,  avg # of iterations =  2.4

     total cpu time spent up to now is        3.8 secs

     total energy              =     -90.38181660 Ry
     Harris-Foulkes estimate   =     -90.45088680 Ry
     estimated scf accuracy    <       0.22860325 Ry

     iteration #  4     ecut=    40.00 Ry     beta= 0.50
     Davidson diagonalization with overlap
     ethr =  7.14E-04,  avg # of iterations =  2.2

     total cpu time spent up to now is        4.4 secs

     total energy              =     -90.40430437 Ry
     Harris-Foulkes estimate   =     -90.41267809 Ry
     estimated scf accuracy    <       0.02187195 Ry

     iteration #  5     ecut=    40.00 Ry     beta= 0.50
     Davidson diagonalization with overlap
     ethr =  6.83E-05,  avg # of iterations =  3.6

     total cpu time spent up to now is        5.1 secs

     total energy              =     -90.40755171 Ry
     Harris-Foulkes estimate   =     -90.41141725 Ry
     estimated scf accuracy    <       0.01452690 Ry

     iteration #  6     ecut=    40.00 Ry     beta= 0.50
     Davidson diagonalization with overlap
     ethr =  4.54E-05,  avg # of iterations =  1.8

     total cpu time spent up to now is        5.6 secs

     total energy              =     -90.40942389 Ry
     Harris-Foulkes estimate   =     -90.40975080 Ry
     estimated scf accuracy    <       0.00131719 Ry

     iteration #  7     ecut=    40.00 Ry     beta= 0.50
     Davidson diagonalization with overlap
     ethr =  4.12E-06,  avg # of iterations =  5.2

     total cpu time spent up to now is        6.5 secs

     total energy              =     -90.40965067 Ry
     Harris-Foulkes estimate   =     -90.40968180 Ry
     estimated scf accuracy    <       0.00017617 Ry

     iteration #  8     ecut=    40.00 Ry     beta= 0.50
     Davidson diagonalization with overlap
     ethr =  5.51E-07,  avg # of iterations =  2.1

     total cpu time spent up to now is        7.1 secs

     total energy              =     -90.40966785 Ry
     Harris-Foulkes estimate   =     -90.40969976 Ry
     estimated scf accuracy    <       0.00014915 Ry

     iteration #  9     ecut=    40.00 Ry     beta= 0.50
     Davidson diagonalization with overlap
     ethr =  4.66E-07,  avg # of iterations =  1.0

     total cpu time spent up to now is        7.6 secs

     total energy              =     -90.40967976 Ry
     Harris-Foulkes estimate   =     -90.40968258 Ry
     estimated scf accuracy    <       0.00000937 Ry

     iteration # 10     ecut=    40.00 Ry     beta= 0.50
     Davidson diagonalization with overlap
     ethr =  2.93E-08,  avg # of iterations =  2.5

     total cpu time spent up to now is        8.2 secs

     total energy              =     -90.40968190 Ry
     Harris-Foulkes estimate   =     -90.40968229 Ry
     estimated scf accuracy    <       0.00000140 Ry

     iteration # 11     ecut=    40.00 Ry     beta= 0.50
     Davidson diagonalization with overlap
     ethr =  4.36E-09,  avg # of iterations =  2.4

     total cpu time spent up to now is        8.8 secs

     End of self-consistent calculation

          k = 0.0000 0.0000 0.0000 (  2473 PWs)   bands (ev):

   -15.0293 -13.0170 -11.5838  -9.0251  -7.6735  -5.1802  -3.0005  -1.2329
    -0.8366  -0.2161   0.1270   0.8291   1.0834   2.0624   2.2965   4.6276
     7.4136   7.8776   8.2767   9.0824

          k =-0.0000-0.0002 0.7134 (  2445 PWs)   bands (ev):

   -13.9095 -11.9591 -10.5816  -8.2478  -6.9120  -4.8361  -4.1828  -3.3068
    -2.7562  -2.1629  -0.5423  -0.0600   1.2343   2.2240   2.8285   4.2145
     5.5301   6.8868   7.9840   9.1537

          k = 0.0000 0.0003-1.4268 (  2450 PWs)   bands (ev):

   -11.3095  -9.9014  -9.0334  -9.0269  -7.6423  -7.0435  -4.8543  -4.7786
    -3.5663  -3.4954  -1.4862   0.9605   2.6241   2.9058   3.3742   3.4123
     4.6394   4.8166   7.2073   7.6042

          k =-0.0054-0.7225-0.0002 (  2472 PWs)   bands (ev):

   -14.6695 -12.9190 -12.7263  -9.2227  -5.8944  -3.7222  -3.5616  -2.3679
    -1.6257  -0.2617  -0.2225  -0.0619   0.4880   1.9792   3.2198   5.1335
     6.9136   7.8413  10.0043  10.1669

          k =-0.0054-0.7226 0.7132 (  2450 PWs)   bands (ev):

   -13.5615 -11.8537 -11.6669  -8.4333  -5.6046  -3.9023  -3.8143  -3.3946
    -2.8561  -2.6465  -1.8786  -0.5726   0.8990   2.2583   3.6299   4.3848
     5.5273   6.9071   7.6506   9.5080

          k =-0.0054-0.7221-1.4270 (  2468 PWs)   bands (ev):

   -11.1136  -9.4648  -8.9387  -8.9219  -8.4022  -8.2094  -4.9222  -4.9091
    -2.4124  -2.0885  -1.7923   1.1227   2.3905   2.7372   3.3528   3.4483
     4.6257   4.7383   7.2613   7.4192

          k =-0.5000 0.0078 0.0000 (  2466 PWs)   bands (ev):

   -15.0215 -13.0558 -11.5415  -9.0213  -7.6792  -5.2850  -2.7068  -1.0876
    -0.8348  -0.5430   0.1217   0.5149   1.0866   2.0463   2.4092   4.9254
     7.3110   7.8803   8.3589   9.4657

          k =-0.5000 0.0076 0.7134 (  2460 PWs)   bands (ev):

   -13.9022 -11.9958 -10.5407  -8.2491  -6.9216  -4.8658  -4.1968  -3.2887
    -2.7287  -2.1069  -0.5167   0.1429   0.7467   2.2884   2.8459   4.2054
     5.6664   6.9484   7.8627   9.2774

          k =-0.4999 0.0081-1.4268 (  2452 PWs)   bands (ev):

   -11.3073  -9.8811  -9.0698  -9.0416  -7.6288  -7.0234  -4.8466  -4.7748
    -3.5679  -3.4983  -1.5057   0.8737   2.6514   3.1084   3.4626   3.7379
     4.1895   4.5842   7.2844   7.4599

          k =-0.5054-0.7147-0.0002 (  2454 PWs)   bands (ev):

   -14.6642 -12.8991 -12.7641  -9.2011  -5.8733  -3.8266  -3.4945  -2.3108
    -1.4825  -0.5967  -0.2564  -0.0677   0.4881   2.1352   3.1649   5.3404
     6.8155   7.8425   9.9854  10.0341

          k =-0.5054-0.7149 0.7132 (  2452 PWs)   bands (ev):

   -13.5566 -11.8377 -11.6992  -8.4155  -5.5966  -3.8808  -3.8253  -3.4343
    -2.8661  -2.6127  -1.8775  -0.3888   0.5397   2.3318   3.6610   4.3525
     5.7157   6.8579   7.5359   9.5464

          k =-0.5054-0.7144-1.4270 (  2456 PWs)   bands (ev):

   -11.1125  -9.4271  -8.9829  -8.9324  -8.4143  -8.1921  -4.9099  -4.9009
    -2.4129  -2.0836  -1.7912   1.0732   2.3609   2.9778   3.4757   3.6048
     3.9787   4.7398   7.3120   7.3765

     the Fermi energy is     4.5961 ev

!    total energy              =     -90.40968203 Ry
     Harris-Foulkes estimate   =     -90.40968221 Ry
     estimated scf accuracy    <       0.00000030 Ry

     The total energy is the sum of the following terms:

     one-electron contribution =     -51.00657573 Ry
     hartree contribution      =      38.89570898 Ry
     xc contribution           =     -27.14723560 Ry
     ewald contribution        =     -51.15195012 Ry
     smearing contrib. (-TS)   =       0.00037043 Ry

     convergence has been achieved in  11 iterations

     Forces acting on atoms (cartesian axes, Ry/au):

     atom    1 type  1   force =    -0.00905357    0.01242091   -0.00053659
     atom    2 type  1   force =    -0.02245077   -0.00217049    0.00072044
     atom    3 type  1   force =     0.02446769   -0.01355969    0.00016186
     atom    4 type  1   force =     0.00379304   -0.01843281    0.00039885
     atom    5 type  1   force =     0.00992846    0.00355874    0.00014494
     atom    6 type  1   force =    -0.00415488   -0.02231224    0.00065863
     atom    7 type  1   force =    -0.00889243    0.03556693   -0.00092217
     atom    8 type  1   force =     0.00636247    0.00492863   -0.00062596

     Total force =     0.062606     Total SCF correction =     0.000994


     Computing stress (Cartesian axis) and pressure

          total   stress  (Ry/bohr**3)                   (kbar)     P=     -111.15
   0.00004520  -0.00005547   0.00000260            6.65       -8.16        0.38
  -0.00005547  -0.00232477  -0.00000251           -8.16     -341.99       -0.37
   0.00000260  -0.00000251   0.00001273            0.38       -0.37        1.87


     BFGS Geometry Optimization

     number of scf cycles    =   1
     number of bfgs steps    =   0

     enthalpy new            =     -90.4096429619 Ry

     new trust radius        =       0.2787436900 bohr
     new conv_thr            =       0.0000010000 Ry

     new unit-cell volume =    542.07397 a.u.^3 (    80.32707 Ang^3 )
     density =      1.98453 g/cm^3

CELL_PARAMETERS (bohr)
  13.346982249  -0.112864453   0.000973327
   0.130667759   8.689388921   0.001631179
   0.000405744  -0.001517701   4.673378817

ATOMIC_POSITIONS (crystal)
C             0.7679825147        0.9714907757        0.6877225286
C             0.6907227223        1.0787594990        0.1879383624
C             0.8905888694        0.7518043494        0.6872452892
C             0.3175439495        0.1479453719        0.6956983057
C             0.3438124870        0.3262867850        0.1955248230
C             0.3108663757        0.6727244568        0.1959911227
C             0.3102856373        0.8288444379        0.6955438160
C             0.5451664440        0.2601163244        0.1863747525



     Writing output data file ./pp.save/
     NEW-OLD atomic charge density approx. for the potential
     extrapolated charge   30.07434, renormalised to   32.00000

     total cpu time spent up to now is        8.9 secs

     Self-consistent Calculation

     iteration #  1     ecut=    40.00 Ry     beta= 0.50
     Davidson diagonalization with overlap
     c_bands:  1 eigenvalues not converged
     ethr =  1.00E-06,  avg # of iterations = 13.4

     total cpu time spent up to now is       11.6 secs

     total energy              =     -89.06981969 Ry
     Harris-Foulkes estimate   =     -93.16687045 Ry
     estimated scf accuracy    <       1.64890838 Ry

     iteration #  2     ecut=    40.00 Ry     beta= 0.50
     Davidson diagonalization with overlap
     ethr =  5.15E-03,  avg # of iterations =  4.2

     total cpu time spent up to now is       12.6 secs

     total energy              =     -89.82926668 Ry
     Harris-Foulkes estimate   =     -93.01837751 Ry
     estimated scf accuracy    <      14.80409589 Ry

     iteration #  3     ecut=    40.00 Ry     beta= 0.50
     Davidson diagonalization with overlap
     ethr =  5.15E-03,  avg # of iterations =  2.8

     total cpu time spent up to now is       13.4 secs

     total energy              =     -90.43461705 Ry
     Harris-Foulkes estimate   =     -90.64132998 Ry
     estimated scf accuracy    <       1.79716899 Ry

     iteration #  4     ecut=    40.00 Ry     beta= 0.50
     Davidson diagonalization with overlap
     ethr =  5.15E-03,  avg # of iterations =  1.0

     total cpu time spent up to now is       13.8 secs

     total energy              =     -90.48779435 Ry
     Harris-Foulkes estimate   =     -90.50556763 Ry
     estimated scf accuracy    <       0.23958698 Ry

     iteration #  5     ecut=    40.00 Ry     beta= 0.50
     Davidson diagonalization with overlap
     ethr =  7.49E-04,  avg # of iterations =  2.8

     total cpu time spent up to now is       14.4 secs

     total energy              =     -90.47925833 Ry
     Harris-Foulkes estimate   =     -90.49200985 Ry
     estimated scf accuracy    <       0.14919706 Ry

     iteration #  6     ecut=    40.00 Ry     beta= 0.50
     Davidson diagonalization with overlap
     ethr =  4.66E-04,  avg # of iterations =  2.1

     total cpu time spent up to now is       15.0 secs

     total energy              =     -90.47547303 Ry
     Harris-Foulkes estimate   =     -90.48197976 Ry
     estimated scf accuracy    <       0.08505367 Ry

     iteration #  7     ecut=    40.00 Ry     beta= 0.50
     Davidson diagonalization with overlap
     ethr =  2.66E-04,  avg # of iterations =  2.1

     total cpu time spent up to now is       15.6 secs

     total energy              =     -90.47051230 Ry
     Harris-Foulkes estimate   =     -90.47680708 Ry
     estimated scf accuracy    <       0.04739461 Ry

     iteration #  8     ecut=    40.00 Ry     beta= 0.50
     Davidson diagonalization with overlap
     ethr =  1.48E-04,  avg # of iterations =  2.6

     total cpu time spent up to now is       16.3 secs

     total energy              =     -90.47147795 Ry
     Harris-Foulkes estimate   =     -90.47200273 Ry
     estimated scf accuracy    <       0.01439868 Ry

     iteration #  9     ecut=    40.00 Ry     beta= 0.50
     Davidson diagonalization with overlap
     ethr =  4.50E-05,  avg # of iterations =  3.1

     total cpu time spent up to now is       17.0 secs

     total energy              =     -90.47037492 Ry
     Harris-Foulkes estimate   =     -90.47165692 Ry
     estimated scf accuracy    <       0.01123551 Ry

     iteration # 10     ecut=    40.00 Ry     beta= 0.50
     Davidson diagonalization with overlap
     ethr =  3.51E-05,  avg # of iterations =  1.6

     total cpu time spent up to now is       17.6 secs

     total energy              =     -90.46955330 Ry
     Harris-Foulkes estimate   =     -90.47067507 Ry
     estimated scf accuracy    <       0.00409142 Ry

     iteration # 11     ecut=    40.00 Ry     beta= 0.50
     Davidson diagonalization with overlap
     ethr =  1.28E-05,  avg # of iterations =  3.5

     total cpu time spent up to now is       18.4 secs

     total energy              =     -90.47014304 Ry
     Harris-Foulkes estimate   =     -90.47015727 Ry
     estimated scf accuracy    <       0.00004265 Ry

     iteration # 12     ecut=    40.00 Ry     beta= 0.50
     Davidson diagonalization with overlap
     ethr =  1.33E-07,  avg # of iterations =  3.7

     total cpu time spent up to now is       20.1 secs

     total energy              =     -90.47016849 Ry
     Harris-Foulkes estimate   =     -90.47016900 Ry
     estimated scf accuracy    <       0.00000324 Ry

     iteration # 13     ecut=    40.00 Ry     beta= 0.50
     Davidson diagonalization with overlap
     ethr =  1.01E-08,  avg # of iterations =  2.4

     total cpu time spent up to now is       20.9 secs

     total energy              =     -90.47016857 Ry
     Harris-Foulkes estimate   =     -90.47016926 Ry
     estimated scf accuracy    <       0.00000221 Ry

     iteration # 14     ecut=    40.00 Ry     beta= 0.50
     Davidson diagonalization with overlap
     ethr =  6.90E-09,  avg # of iterations =  1.5

     total cpu time spent up to now is       21.4 secs

     End of self-consistent calculation

          k = 0.0000 0.0000 0.0000 (  2473 PWs)   bands (ev):

   -14.9891 -12.7651 -10.9294  -8.6800  -7.8879  -4.7662  -2.5809  -0.8901
    -0.7625   0.2491   0.3529   1.3251   1.6455   2.6152   2.7901   5.1186
     7.9573   8.2544   9.4837  10.5836

          k =-0.0001-0.0001 0.7132 (  2445 PWs)   bands (ev):

   -13.8718 -11.7159  -9.9529  -7.9128  -7.1434  -4.6751  -3.8990  -3.0231
    -2.2744  -1.6968  -0.4164   0.3501   1.7317   2.7223   3.2679   4.6628
     6.0471   7.5237   8.5747   9.8677

          k = 0.0001 0.0003-1.4264 (  2450 PWs)   bands (ev):

   -11.2025 -10.0107  -8.8800  -8.7494  -7.0244  -6.3681  -4.4479  -4.4112
    -3.7220  -3.6053  -1.2350   1.2627   2.9503   3.4117   3.8690   4.0011
     5.2138   5.3270   8.1000   8.3024

          k =-0.0065-0.7671-0.0002 (  2472 PWs)   bands (ev):

   -14.4843 -12.6791 -12.5423  -8.9772  -5.5648  -3.1821  -3.1157  -1.9145
    -1.3002  -0.1288   0.1332   0.2118   0.6627   2.5661   3.8153   5.7691
     7.5924   8.2019  10.6261  11.2214

          k =-0.0065-0.7672 0.7129 (  2450 PWs)   bands (ev):

   -13.3798 -11.6125 -11.4958  -8.1991  -5.3728  -3.7457  -3.6028  -3.0157
    -2.4669  -2.1712  -1.5041  -0.2902   1.2317   2.7576   4.2053   4.9427
     6.0480   7.5537   8.3115  10.4416

          k =-0.0064-0.7668-1.4266 (  2468 PWs)   bands (ev):

   -10.8983  -9.4576  -8.7695  -8.6800  -8.1968  -7.9412  -4.6093  -4.5529
    -2.1483  -1.6710  -1.6195   1.4851   2.6479   3.1487   3.7543   4.0828
     5.1175   5.2894   8.0903   8.5458

          k =-0.4994 0.0075 0.0000 (  2466 PWs)   bands (ev):

   -14.9824 -12.8011 -10.8790  -8.6872  -7.8893  -4.8913  -2.2452  -0.8885
    -0.6636  -0.0628   0.3483   0.9763   1.6488   2.5727   2.9956   5.4338
     7.8705   8.2534   9.8606  10.5719

          k =-0.4994 0.0074 0.7132 (  2460 PWs)   bands (ev):

   -13.8655 -11.7498  -9.9041  -7.9252  -7.1480  -4.6943  -3.9431  -3.0048
    -2.1983  -1.6706  -0.4112   0.5475   1.2224   2.7878   3.3782   4.6224
     6.1840   7.5897   8.4522  10.0835

          k =-0.4993 0.0078-1.4264 (  2452 PWs)   bands (ev):

   -11.2002  -9.9989  -8.8920  -8.7779  -7.0091  -6.3441  -4.4430  -4.4111
    -3.7230  -3.6060  -1.2569   1.1629   2.9737   3.5531   4.1281   4.3004
     4.6824   5.1155   8.1079   8.2037

          k =-0.5059-0.7595-0.0002 (  2454 PWs)   bands (ev):

   -14.4791 -12.6454 -12.5934  -8.9557  -5.5434  -3.2992  -3.0331  -1.8583
    -1.1842  -0.2273  -0.1244   0.2053   0.6643   2.7126   3.8344   6.0018
     7.4167   8.2011  10.6249  11.0690

          k =-0.5059-0.7597 0.7130 (  2452 PWs)   bands (ev):

   -13.3749 -11.5793 -11.5447  -8.1818  -5.3642  -3.7396  -3.5924  -3.0615
    -2.4877  -2.1186  -1.5072  -0.1324   0.8783   2.8382   4.3337   4.8239
     6.2594   7.5428   8.1328  10.5129

          k =-0.5058-0.7593-1.4266 (  2456 PWs)   bands (ev):

   -10.8973  -9.4354  -8.7634  -8.7248  -8.2092  -7.9231  -4.6009  -4.5412
    -2.1464  -1.6728  -1.6111   1.4186   2.6258   3.3415   4.1032   4.1610
     4.3736   5.2804   8.1545   8.4772

     the Fermi energy is     5.1268 ev

!    total energy              =     -90.47016881 Ry
     Harris-Foulkes estimate   =     -90.47016887 Ry
     estimated scf accuracy    <       0.00000014 Ry

     The total energy is the sum of the following terms:

     one-electron contribution =     -50.14916647 Ry
     hartree contribution      =      39.04823851 Ry
     xc contribution           =     -27.45047511 Ry
     ewald contribution        =     -51.91884360 Ry
     smearing contrib. (-TS)   =       0.00007787 Ry

     convergence has been achieved in  14 iterations

     Forces acting on atoms (cartesian axes, Ry/au):

     atom    1 type  1   force =    -0.01123706    0.01403368    0.00029321
     atom    2 type  1   force =     0.01189615   -0.01631267   -0.00028935
     atom    3 type  1   force =     0.05787546   -0.04936703    0.00005538
     atom    4 type  1   force =    -0.00493217    0.01087951   -0.00041272
     atom    5 type  1   force =     0.00061539    0.02691395    0.00077143
     atom    6 type  1   force =    -0.00454618   -0.03219080    0.00000252
     atom    7 type  1   force =    -0.01118468   -0.00564352   -0.00013532
     atom    8 type  1   force =    -0.03848692    0.05168689   -0.00028515

     Total force =     0.112927     Total SCF correction =     0.000722


     Computing stress (Cartesian axis) and pressure

          total   stress  (Ry/bohr**3)                   (kbar)     P=      -11.24
   0.00054751  -0.00036143   0.00000373           80.54      -53.17        0.55
  -0.00036143  -0.00093691  -0.00000208          -53.17     -137.82       -0.31
   0.00000373  -0.00000208   0.00016014            0.55       -0.31       23.56


     number of scf cycles    =   2
     number of bfgs steps    =   1

     enthalpy old            =     -90.4096429619 Ry
     enthalpy new            =     -90.4701319600 Ry

     CASE: enthalpy_new < enthalpy_old

     new trust radius        =       0.3960264076 bohr
     new conv_thr            =       0.0000005788 Ry

     new unit-cell volume =    511.58032 a.u.^3 (    75.80838 Ang^3 )
     density =      2.10282 g/cm^3

CELL_PARAMETERS (bohr)
  13.657946336  -0.315684963   0.003587754
  -0.019605423   7.961328980   0.000466430
   0.001332778  -0.002014329   4.705086396

ATOMIC_POSITIONS (crystal)
C             0.7660313173        0.9748454027        0.6877553116
C             0.6912231766        1.0757045249        0.1879325287
C             0.8994730618        0.7421413933        0.6872953849
C             0.3170739016        0.1485815082        0.6955989510
C             0.3443174597        0.3313347387        0.1958300348
C             0.3101530282        0.6654159903        0.1960876950
C             0.3083728623        0.8303247038        0.6953643324
C             0.5403241926        0.2696237380        0.1861747616



     Writing output data file ./pp.save/
     NEW-OLD atomic charge density approx. for the potential
     extrapolated charge   30.09260, renormalised to   32.00000

     total cpu time spent up to now is       21.5 secs

     Self-consistent Calculation

     iteration #  1     ecut=    40.00 Ry     beta= 0.50
     Davidson diagonalization with overlap
     ethr =  1.00E-06,  avg # of iterations = 13.5

     total cpu time spent up to now is       24.8 secs

     total energy              =     -88.01912281 Ry
     Harris-Foulkes estimate   =     -93.24880516 Ry
     estimated scf accuracy    <       3.03391062 Ry

     iteration #  2     ecut=    40.00 Ry     beta= 0.50
     Davidson diagonalization with overlap
     ethr =  9.48E-03,  avg # of iterations =  4.2

     total cpu time spent up to now is       26.1 secs

     total energy              =     -89.53517989 Ry
     Harris-Foulkes estimate   =     -95.02415787 Ry
     estimated scf accuracy    <      24.11966382 Ry

     iteration #  3     ecut=    40.00 Ry     beta= 0.50
     Davidson diagonalization with overlap
     ethr =  9.48E-03,  avg # of iterations =  3.2

     total cpu time spent up to now is       27.0 secs

     total energy              =     -90.50181697 Ry
     Harris-Foulkes estimate   =     -90.84596633 Ry
     estimated scf accuracy    <       3.59175090 Ry

     iteration #  4     ecut=    40.00 Ry     beta= 0.50
     Davidson diagonalization with overlap
     ethr =  9.48E-03,  avg # of iterations =  1.0

     total cpu time spent up to now is       27.5 secs

     total energy              =     -90.48162537 Ry
     Harris-Foulkes estimate   =     -90.57086667 Ry
     estimated scf accuracy    <       0.92789778 Ry

     iteration #  5     ecut=    40.00 Ry     beta= 0.50
     Davidson diagonalization with overlap
     ethr =  2.90E-03,  avg # of iterations =  1.4

     total cpu time spent up to now is       28.1 secs

     total energy              =     -90.49663289 Ry
     Harris-Foulkes estimate   =     -90.50819877 Ry
     estimated scf accuracy    <       0.24332820 Ry

     iteration #  6     ecut=    40.00 Ry     beta= 0.50
     Davidson diagonalization with overlap
     ethr =  7.60E-04,  avg # of iterations =  2.3

     total cpu time spent up to now is       28.9 secs

     total energy              =     -90.47975952 Ry
     Harris-Foulkes estimate   =     -90.49962697 Ry
     estimated scf accuracy    <       0.16722892 Ry

     iteration #  7     ecut=    40.00 Ry     beta= 0.50
     Davidson diagonalization with overlap
     ethr =  5.23E-04,  avg # of iterations =  1.9

     total cpu time spent up to now is       29.6 secs

     total energy              =     -90.47715756 Ry
     Harris-Foulkes estimate   =     -90.48447164 Ry
     estimated scf accuracy    <       0.06544968 Ry

     iteration #  8     ecut=    40.00 Ry     beta= 0.50
     Davidson diagonalization with overlap
     ethr =  2.05E-04,  avg # of iterations =  2.2

     total cpu time spent up to now is       30.4 secs

     total energy              =     -90.47752922 Ry
     Harris-Foulkes estimate   =     -90.47915629 Ry
     estimated scf accuracy    <       0.02009095 Ry

     iteration #  9     ecut=    40.00 Ry     beta= 0.50
     Davidson diagonalization with overlap
     ethr =  6.28E-05,  avg # of iterations =  4.4

     total cpu time spent up to now is       31.5 secs

     total energy              =     -90.47609643 Ry
     Harris-Foulkes estimate   =     -90.47802321 Ry
     estimated scf accuracy    <       0.00962930 Ry

     iteration # 10     ecut=    40.00 Ry     beta= 0.50
     Davidson diagonalization with overlap
     ethr =  3.01E-05,  avg # of iterations =  2.8

     total cpu time spent up to now is       32.4 secs

     total energy              =     -90.47687371 Ry
     Harris-Foulkes estimate   =     -90.47697129 Ry
     estimated scf accuracy    <       0.00031773 Ry

     iteration # 11     ecut=    40.00 Ry     beta= 0.50
     Davidson diagonalization with overlap
     ethr =  9.93E-07,  avg # of iterations =  5.7

     total cpu time spent up to now is       34.0 secs

     total energy              =     -90.47696790 Ry
     Harris-Foulkes estimate   =     -90.47698509 Ry
     estimated scf accuracy    <       0.00004172 Ry

     iteration # 12     ecut=    40.00 Ry     beta= 0.50
     Davidson diagonalization with overlap
     ethr =  1.30E-07,  avg # of iterations =  2.2

     total cpu time spent up to now is       34.9 secs

     total energy              =     -90.47697634 Ry
     Harris-Foulkes estimate   =     -90.47697740 Ry
     estimated scf accuracy    <       0.00000526 Ry

     iteration # 13     ecut=    40.00 Ry     beta= 0.50
     Davidson diagonalization with overlap
     ethr =  1.64E-08,  avg # of iterations =  2.0

     total cpu time spent up to now is       35.7 secs

     total energy              =     -90.47697676 Ry
     Harris-Foulkes estimate   =     -90.47697688 Ry
     estimated scf accuracy    <       0.00000102 Ry

     iteration # 14     ecut=    40.00 Ry     beta= 0.50
     Davidson diagonalization with overlap
     ethr =  3.19E-09,  avg # of iterations =  2.1

     total cpu time spent up to now is       36.6 secs

     End of self-consistent calculation

          k = 0.0000 0.0000 0.0000 (  2473 PWs)   bands (ev):

   -15.1219 -12.0781  -9.9932  -8.3602  -7.6073  -4.4724  -2.0338  -1.3675
     0.1457   0.6748   0.7953   1.9142   2.3682   3.1911   3.5827   5.5221
     8.1879   8.9233   9.9316  10.8355

          k =-0.0002-0.0000 0.7084 (  2445 PWs)   bands (ev):

   -14.0274 -11.0422  -9.0857  -7.6572  -6.8427  -4.8235  -3.6375  -2.5618
    -1.6555  -0.9843  -0.4371   1.1405   2.4135   3.2350   4.0174   5.0365
     6.5440   7.8690   8.8347  10.4628

          k = 0.0004 0.0001-1.4168 (  2450 PWs)   bands (ev):

   -11.3245 -10.3725  -8.2886  -8.0021  -6.2792  -5.4046  -4.0432  -3.9737
    -3.5891  -3.5634  -1.0267   1.3465   3.7821   3.9343   4.5395   4.6632
     5.7868   5.8325   8.4222   9.1938

          k =-0.0194-0.8374-0.0004 (  2472 PWs)   bands (ev):

   -14.3042 -12.7277 -11.8614  -8.1094  -5.2988  -2.6973  -2.3211  -1.2351
    -0.8372  -0.1454   0.2885   0.5401   0.7909   3.2160   4.6834   6.3693
     8.1855   8.8586  10.8691  12.0982

          k =-0.0195-0.8374 0.7080 (  2450 PWs)   bands (ev):

   -13.2214 -11.6827 -10.8339  -7.3292  -5.2193  -3.9091  -3.4665  -2.5191
    -1.7742  -1.5820  -0.8583   0.1745   1.5824   3.2936   5.0825   5.5526
     6.5521   7.9238   8.8317  11.3178

          k =-0.0190-0.8373-1.4171 (  2468 PWs)   bands (ev):

   -10.7567  -9.6186  -8.5770  -7.9818  -7.8451  -7.8171  -4.0291  -3.7724
    -1.6267  -1.5347  -1.0049   1.6999   3.2626   3.7121   4.1055   4.5687
     5.6138   5.8542   8.9137   9.1477

          k =-0.4881-0.0012 0.0001 (  2466 PWs)   bands (ev):

   -15.1190 -12.1052  -9.9428  -8.3656  -7.6023  -4.6314  -1.6362  -1.3669
     0.2242   0.4495   0.6726   1.5093   2.3705   3.2983   3.7489   5.8939
     8.0176   8.9281  10.2940  10.8195

          k =-0.4883-0.0012 0.7085 (  2460 PWs)   bands (ev):

   -14.0247 -11.0675  -9.0390  -7.6604  -6.8504  -4.8293  -3.7307  -2.5502
    -1.4893  -0.9841  -0.4436   1.3285   1.7768   3.4699   4.1180   4.9886
     6.7376   7.9087   8.6762  10.6658

          k =-0.4877-0.0011-1.4166 (  2452 PWs)   bands (ev):

   -11.3234 -10.3691  -8.2983  -8.0190  -6.2634  -5.3799  -4.0505  -3.9743
    -3.5815  -3.5546  -1.0542   1.2165   3.8403   4.3949   4.6563   4.6895
     5.2844   5.6789   8.3051   9.1814

          k =-0.5075-0.8386-0.0002 (  2454 PWs)   bands (ev):

   -14.3017 -12.7224 -11.8809  -8.0793  -5.2933  -2.7257  -2.3505  -1.2520
    -0.6554  -0.1435   0.2723   0.2875   0.7910   3.3055   4.7375   6.7037
     7.8445   8.8567  10.8677  12.0923

          k =-0.5076-0.8386 0.7082 (  2452 PWs)   bands (ev):

   -13.2191 -11.6781 -10.8515  -7.3052  -5.2138  -3.9196  -3.4552  -2.5470
    -1.8412  -1.4930  -0.8875   0.3194   1.3188   3.3598   5.2298   5.3891
     6.8048   7.9831   8.5276  11.3783

          k =-0.5071-0.8385-1.4170 (  2456 PWs)   bands (ev):

   -10.7562  -9.6132  -8.5702  -8.0217  -7.8552  -7.7894  -4.0176  -3.7570
    -1.6318  -1.5310  -0.9954   1.5908   3.2166   3.9626   4.6024   4.6291
     4.7222   5.8547   9.0249   9.0960

     the Fermi energy is     5.6661 ev

!    total energy              =     -90.47697690 Ry
     Harris-Foulkes estimate   =     -90.47697691 Ry
     estimated scf accuracy    <       0.00000004 Ry

     The total energy is the sum of the following terms:

     one-electron contribution =     -48.79475586 Ry
     hartree contribution      =      39.00488672 Ry
     xc contribution           =     -27.64137524 Ry
     ewald contribution        =     -53.04568720 Ry
     smearing contrib. (-TS)   =      -0.00004532 Ry

     convergence has been achieved in  14 iterations

     Forces acting on atoms (cartesian axes, Ry/au):

     atom    1 type  1   force =     0.07086513   -0.07236856   -0.00031052
     atom    2 type  1   force =    -0.08365477    0.04982110   -0.00017476
     atom    3 type  1   force =    -0.01487855    0.03488273   -0.00004010
     atom    4 type  1   force =    -0.00622007    0.11383509    0.00077773
     atom    5 type  1   force =    -0.00794691   -0.03949817   -0.00017127
     atom    6 type  1   force =    -0.01647027    0.05275009   -0.00022185
     atom    7 type  1   force =    -0.02228507   -0.13799969    0.00030929
     atom    8 type  1   force =     0.08059050   -0.00142259   -0.00016851

     Total force =     0.254735     Total SCF correction =     0.000256


     Computing stress (Cartesian axis) and pressure

          total   stress  (Ry/bohr**3)                   (kbar)     P=       70.36
   0.00023653   0.00018017  -0.00000428           34.79       26.50       -0.63
   0.00018017   0.00124779   0.00000128           26.50      183.56        0.19
  -0.00000428   0.00000128  -0.00004939           -0.63        0.19       -7.27


     number of scf cycles    =   3
     number of bfgs steps    =   2

     enthalpy old            =     -90.4701319600 Ry
     enthalpy new            =     -90.4769421191 Ry

     CASE: enthalpy_new < enthalpy_old

     new trust radius        =       0.1597514338 bohr
     new conv_thr            =       0.0000006810 Ry

     new unit-cell volume =    528.43167 a.u.^3 (    78.30549 Ang^3 )
     density =      2.03577 g/cm^3

CELL_PARAMETERS (bohr)
  13.649724172  -0.259646385   0.002572599
   0.023443949   8.239653788   0.000790686
   0.000966744  -0.001877964   4.698210753

ATOMIC_POSITIONS (crystal)
C             0.7691241594        0.9709105344        0.6877296109
C             0.6880059561        1.0784921960        0.1879008683
C             0.8975623955        0.7451540993        0.6872803645
C             0.3167508864        0.1539134618        0.6956853937
C             0.3439463945        0.3288025089        0.1957703722
C             0.3095766448        0.6690038247        0.1960396977
C             0.3079783098        0.8234891584        0.6954388187
C             0.5440242536        0.2682062165        0.1861938741



     Writing output data file ./pp.save/
     NEW-OLD atomic charge density approx. for the potential
     extrapolated charge   33.02045, renormalised to   32.00000

     total cpu time spent up to now is       36.7 secs

     Self-consistent Calculation

     iteration #  1     ecut=    40.00 Ry     beta= 0.50
     Davidson diagonalization with overlap
     ethr =  1.00E-06,  avg # of iterations = 12.8

     total cpu time spent up to now is       40.6 secs

     total energy              =     -89.99707862 Ry
     Harris-Foulkes estimate   =     -89.22324615 Ry
     estimated scf accuracy    <       0.59812535 Ry

     iteration #  2     ecut=    40.00 Ry     beta= 0.50
     Davidson diagonalization with overlap
     ethr =  1.87E-03,  avg # of iterations =  5.9

     total cpu time spent up to now is       42.5 secs

     total energy              =     -89.78526202 Ry
     Harris-Foulkes estimate   =     -91.62937779 Ry
     estimated scf accuracy    <      11.11886201 Ry

     iteration #  3     ecut=    40.00 Ry     beta= 0.50
     Davidson diagonalization with overlap
     ethr =  1.87E-03,  avg # of iterations =  3.6

     total cpu time spent up to now is       43.9 secs

     total energy              =     -90.50217018 Ry
     Harris-Foulkes estimate   =     -90.53644292 Ry
     estimated scf accuracy    <       0.33472118 Ry

     iteration #  4     ecut=    40.00 Ry     beta= 0.50
     Davidson diagonalization with overlap
     ethr =  1.05E-03,  avg # of iterations =  1.0

     total cpu time spent up to now is       44.6 secs

     total energy              =     -90.50543625 Ry
     Harris-Foulkes estimate   =     -90.51264794 Ry
     estimated scf accuracy    <       0.10315411 Ry

     iteration #  5     ecut=    40.00 Ry     beta= 0.50
     Davidson diagonalization with overlap
     ethr =  3.22E-04,  avg # of iterations =  1.7

     total cpu time spent up to now is       45.5 secs

     total energy              =     -90.50183425 Ry
     Harris-Foulkes estimate   =     -90.50793392 Ry
     estimated scf accuracy    <       0.06950372 Ry

     iteration #  6     ecut=    40.00 Ry     beta= 0.50
     Davidson diagonalization with overlap
     ethr =  2.17E-04,  avg # of iterations =  2.2

     total cpu time spent up to now is       46.5 secs

     total energy              =     -90.49719330 Ry
     Harris-Foulkes estimate   =     -90.50327593 Ry
     estimated scf accuracy    <       0.03285257 Ry

     iteration #  7     ecut=    40.00 Ry     beta= 0.50
     Davidson diagonalization with overlap
     ethr =  1.03E-04,  avg # of iterations =  1.8

     total cpu time spent up to now is       47.4 secs

     total energy              =     -90.49905773 Ry
     Harris-Foulkes estimate   =     -90.49945137 Ry
     estimated scf accuracy    <       0.00281435 Ry

     iteration #  8     ecut=    40.00 Ry     beta= 0.50
     Davidson diagonalization with overlap
     ethr =  8.79E-06,  avg # of iterations =  3.9

     total cpu time spent up to now is       48.9 secs

     total energy              =     -90.49926114 Ry
     Harris-Foulkes estimate   =     -90.49944437 Ry
     estimated scf accuracy    <       0.00079271 Ry

     iteration #  9     ecut=    40.00 Ry     beta= 0.50
     Davidson diagonalization with overlap
     ethr =  2.48E-06,  avg # of iterations =  2.2

     total cpu time spent up to now is       50.0 secs

     total energy              =     -90.49930959 Ry
     Harris-Foulkes estimate   =     -90.49933791 Ry
     estimated scf accuracy    <       0.00008301 Ry

     iteration # 10     ecut=    40.00 Ry     beta= 0.50
     Davidson diagonalization with overlap
     ethr =  2.59E-07,  avg # of iterations =  3.0

     total cpu time spent up to now is       51.4 secs

     total energy              =     -90.49932959 Ry
     Harris-Foulkes estimate   =     -90.49933697 Ry
     estimated scf accuracy    <       0.00002454 Ry

     iteration # 11     ecut=    40.00 Ry     beta= 0.50
     Davidson diagonalization with overlap
     ethr =  7.67E-08,  avg # of iterations =  2.3

     total cpu time spent up to now is       52.6 secs

     total energy              =     -90.49933056 Ry
     Harris-Foulkes estimate   =     -90.49933185 Ry
     estimated scf accuracy    <       0.00000343 Ry

     iteration # 12     ecut=    40.00 Ry     beta= 0.50
     Davidson diagonalization with overlap
     ethr =  1.07E-08,  avg # of iterations =  3.0

     total cpu time spent up to now is       54.1 secs

     total energy              =     -90.49933143 Ry
     Harris-Foulkes estimate   =     -90.49933169 Ry
     estimated scf accuracy    <       0.00000069 Ry

     iteration # 13     ecut=    40.00 Ry     beta= 0.50
     Davidson diagonalization with overlap
     ethr =  2.17E-09,  avg # of iterations =  2.2

     total cpu time spent up to now is       55.4 secs

     End of self-consistent calculation

          k = 0.0000 0.0000 0.0000 (  2473 PWs)   bands (ev):

   -15.0479 -12.3112 -10.4403  -8.2206  -7.9917  -4.7054  -2.4869  -1.3984
    -0.1739   0.5678   0.8666   1.6288   1.8157   2.8139   3.2043   5.2703
     8.0380   8.4602   9.5221  10.6728

          k =-0.0001-0.0001 0.7094 (  2445 PWs)   bands (ev):

   -13.9485 -11.2702  -9.4975  -7.4573  -7.2892  -4.8972  -3.8759  -2.5914
    -2.0628  -1.5648  -0.1908   0.8282   2.0462   2.9402   3.5946   4.7575
     6.1930   7.5971   8.6422   9.9596

          k = 0.0003 0.0001-1.4189 (  2450 PWs)   bands (ev):

   -11.2559 -10.2115  -8.5826  -8.2185  -6.7002  -6.0015  -4.0502  -4.0105
    -3.7659  -3.6981  -1.2392   1.3328   3.3202   3.6412   4.1822   4.2464
     5.4518   5.5066   8.2988   8.4075

          k =-0.0154-0.8090-0.0003 (  2472 PWs)   bands (ev):

   -14.3228 -12.7596 -12.0848  -8.5893  -5.3874  -2.8958  -2.6637  -1.5887
    -1.0026  -0.2819  -0.1088   0.3051   1.0005   2.8451   4.1496   5.9472
     7.9448   8.4039  10.6999  11.6485

          k =-0.0155-0.8090 0.7091 (  2450 PWs)   bands (ev):

   -13.2360 -11.7076 -11.0484  -7.8173  -5.2274  -3.9861  -3.6103  -2.6092
    -2.0761  -1.9354  -1.1718  -0.0091   1.3910   2.9857   4.5522   5.1814
     6.1797   7.6311   8.6131  10.7146

          k =-0.0151-0.8088-1.4192 (  2468 PWs)   bands (ev):

   -10.7786  -9.4208  -8.7107  -8.2064  -8.0877  -8.0630  -4.3100  -4.1416
    -1.6981  -1.6496  -1.3824   1.6352   2.8913   3.4150   3.8758   4.2321
     5.3182   5.4874   8.1576   8.9182

          k =-0.4883 0.0014 0.0001 (  2466 PWs)   bands (ev):

   -15.0442 -12.3410 -10.3908  -8.2366  -7.9805  -4.8490  -2.1371  -1.3981
    -0.0743   0.1771   0.8628   1.4830   1.6327   2.8963   3.3626   5.6689
     7.8552   8.4613   9.8731  10.6582

          k =-0.4885 0.0013 0.7095 (  2460 PWs)   bands (ev):

   -13.9450 -11.2981  -9.4501  -7.4717  -7.2896  -4.9048  -3.9539  -2.5387
    -1.9891  -1.5418  -0.1939   1.0295   1.4804   3.0899   3.6702   4.7426
     6.3696   7.6459   8.4894  10.1773

          k =-0.4881 0.0015-1.4188 (  2452 PWs)   bands (ev):

   -11.2545 -10.2068  -8.5924  -8.2376  -6.6864  -5.9807  -4.0537  -3.9995
    -3.7602  -3.7011  -1.2643   1.2048   3.3566   4.0181   4.3170   4.4331
     4.9114   5.3071   8.1864   8.4350

          k =-0.5037-0.8076-0.0002 (  2454 PWs)   bands (ev):

   -14.3200 -12.7504 -12.1095  -8.5618  -5.3780  -2.9537  -2.6586  -1.5512
    -0.8867  -0.2804  -0.1100   0.0467   0.9999   2.9137   4.1782   6.2874
     7.6455   8.4010  10.6980  11.5916

          k =-0.5039-0.8077 0.7092 (  2452 PWs)   bands (ev):

   -13.2334 -11.6993 -11.0708  -7.7948  -5.2227  -3.9951  -3.5995  -2.6516
    -2.0872  -1.8916  -1.1779   0.1196   1.1228   3.0342   4.6948   5.0267
     6.4385   7.6662   8.3397  10.7888

          k =-0.5035-0.8075-1.4191 (  2456 PWs)   bands (ev):

   -10.7781  -9.4120  -8.7036  -8.2540  -8.0826  -8.0473  -4.3004  -4.1261
    -1.7007  -1.6497  -1.3738   1.5361   2.8577   3.6729   4.2515   4.3199
     4.4867   5.4957   8.2755   8.8564

     the Fermi energy is     5.3372 ev

!    total energy              =     -90.49933153 Ry
     Harris-Foulkes estimate   =     -90.49933154 Ry
     estimated scf accuracy    <       0.00000002 Ry

     The total energy is the sum of the following terms:

     one-electron contribution =     -49.09405830 Ry
     hartree contribution      =      38.80039108 Ry
     xc contribution           =     -27.50226048 Ry
     ewald contribution        =     -52.70293364 Ry
     smearing contrib. (-TS)   =      -0.00047019 Ry

     convergence has been achieved in  13 iterations

     Forces acting on atoms (cartesian axes, Ry/au):

     atom    1 type  1   force =    -0.00015071   -0.01468958   -0.00023682
     atom    2 type  1   force =     0.01156105   -0.01590147   -0.00002476
     atom    3 type  1   force =     0.00781030    0.01045319   -0.00001244
     atom    4 type  1   force =    -0.00657156   -0.02938848    0.00032215
     atom    5 type  1   force =     0.01527222    0.01971991   -0.00026050
     atom    6 type  1   force =    -0.00255822   -0.02831878   -0.00028535
     atom    7 type  1   force =    -0.01347569    0.02888886    0.00036413
     atom    8 type  1   force =    -0.01188739    0.02923635    0.00013359

     Total force =     0.071574     Total SCF correction =     0.000312


     Computing stress (Cartesian axis) and pressure

          total   stress  (Ry/bohr**3)                   (kbar)     P=        4.76
   0.00013910   0.00004448   0.00000009           20.46        6.54        0.01
   0.00004448  -0.00004765   0.00000082            6.54       -7.01        0.12
   0.00000009   0.00000082   0.00000561            0.01        0.12        0.83


     number of scf cycles    =   4
     number of bfgs steps    =   3

     enthalpy old            =     -90.4769421191 Ry
     enthalpy new            =     -90.4992956044 Ry

     CASE: enthalpy_new < enthalpy_old

     new trust radius        =       0.0203256954 bohr
     new conv_thr            =       0.0000002939 Ry

     new unit-cell volume =    530.13291 a.u.^3 (    78.55759 Ang^3 )
     density =      2.02923 g/cm^3

CELL_PARAMETERS (bohr)
  13.688775471  -0.240778788   0.002496824
   0.038966688   8.242854424   0.000981392
   0.000935613  -0.001792121   4.697928697

ATOMIC_POSITIONS (crystal)
C             0.7695904395        0.9690892656        0.6876752062
C             0.6882334663        1.0775186037        0.1879001159
C             0.8979282402        0.7464048227        0.6872771677
C             0.3163102386        0.1521264023        0.6957670440
C             0.3449448964        0.3301552850        0.1957131799
C             0.3093389794        0.6669500344        0.1959864371
C             0.3068849417        0.8251083389        0.6955075863
C             0.5437377979        0.2706192474        0.1862122629



     Writing output data file ./pp.save/
     NEW-OLD atomic charge density approx. for the potential
     extrapolated charge   32.10269, renormalised to   32.00000

     total cpu time spent up to now is       55.4 secs

     Self-consistent Calculation

     iteration #  1     ecut=    40.00 Ry     beta= 0.50
     Davidson diagonalization with overlap
     ethr =  1.00E-06,  avg # of iterations =  7.1

     total cpu time spent up to now is       58.7 secs

     total energy              =     -90.49568802 Ry
     Harris-Foulkes estimate   =     -90.36775761 Ry
     estimated scf accuracy    <       0.00750819 Ry

     iteration #  2     ecut=    40.00 Ry     beta= 0.50
     Davidson diagonalization with overlap
     ethr =  2.35E-05,  avg # of iterations =  3.7

     total cpu time spent up to now is       60.6 secs

     total energy              =     -90.49415670 Ry
     Harris-Foulkes estimate   =     -90.51219576 Ry
     estimated scf accuracy    <       0.09608462 Ry

     iteration #  3     ecut=    40.00 Ry     beta= 0.50
     Davidson diagonalization with overlap
     ethr =  2.35E-05,  avg # of iterations =  3.2

     total cpu time spent up to now is       62.3 secs

     total energy              =     -90.50126122 Ry
     Harris-Foulkes estimate   =     -90.50159896 Ry
     estimated scf accuracy    <       0.00222576 Ry

     iteration #  4     ecut=    40.00 Ry     beta= 0.50
     Davidson diagonalization with overlap
     ethr =  6.96E-06,  avg # of iterations =  1.4

     total cpu time spent up to now is       63.4 secs

     total energy              =     -90.50126055 Ry
     Harris-Foulkes estimate   =     -90.50141708 Ry
     estimated scf accuracy    <       0.00097533 Ry

     iteration #  5     ecut=    40.00 Ry     beta= 0.50
     Davidson diagonalization with overlap
     ethr =  3.05E-06,  avg # of iterations =  1.3

     total cpu time spent up to now is       64.5 secs

     total energy              =     -90.50127665 Ry
     Harris-Foulkes estimate   =     -90.50132755 Ry
     estimated scf accuracy    <       0.00019897 Ry

     iteration #  6     ecut=    40.00 Ry     beta= 0.50
     Davidson diagonalization with overlap
     ethr =  6.22E-07,  avg # of iterations =  2.5

     total cpu time spent up to now is       65.9 secs

     total energy              =     -90.50130774 Ry
     Harris-Foulkes estimate   =     -90.50130859 Ry
     estimated scf accuracy    <       0.00000502 Ry

     iteration #  7     ecut=    40.00 Ry     beta= 0.50
     Davidson diagonalization with overlap
     ethr =  1.57E-08,  avg # of iterations =  3.4

     total cpu time spent up to now is       67.8 secs

     total energy              =     -90.50130938 Ry
     Harris-Foulkes estimate   =     -90.50130968 Ry
     estimated scf accuracy    <       0.00000159 Ry

     iteration #  8     ecut=    40.00 Ry     beta= 0.50
     Davidson diagonalization with overlap
     ethr =  4.97E-09,  avg # of iterations =  1.8

     total cpu time spent up to now is       69.1 secs

     total energy              =     -90.50130939 Ry
     Harris-Foulkes estimate   =     -90.50130955 Ry
     estimated scf accuracy    <       0.00000063 Ry

     iteration #  9     ecut=    40.00 Ry     beta= 0.50
     Davidson diagonalization with overlap
     ethr =  1.96E-09,  avg # of iterations =  1.4

     total cpu time spent up to now is       70.3 secs

     End of self-consistent calculation

          k = 0.0000 0.0000 0.0000 (  2473 PWs)   bands (ev):

   -15.0550 -12.3242 -10.4514  -8.2476  -8.1248  -4.7594  -2.5002  -1.3069
    -0.1878   0.4691   0.8877   1.6480   1.8026   2.7733   3.1333   5.2065
     7.9168   8.4292   9.5375  10.6201

          k =-0.0001-0.0001 0.7095 (  2445 PWs)   bands (ev):

   -13.9546 -11.2812  -9.5074  -7.4716  -7.4354  -4.8463  -3.9261  -2.5770
    -2.0668  -1.4771  -0.3859   0.8083   2.0035   2.9187   3.5408   4.7265
     6.1374   7.5621   8.5432   9.9475

          k = 0.0003 0.0002-1.4189 (  2450 PWs)   bands (ev):

   -11.2679 -10.2166  -8.5503  -8.2891  -6.6749  -5.9387  -4.0695  -4.0539
    -3.8761  -3.8224  -1.3092   1.3220   3.3401   3.6116   4.1610   4.1709
     5.4159   5.4367   8.1937   8.4051

          k =-0.0142-0.8086-0.0003 (  2472 PWs)   bands (ev):

   -14.3195 -12.7951 -12.1041  -8.6266  -5.4883  -3.0235  -2.7232  -1.6211
    -1.0384  -0.1602   0.0030   0.2705   1.0141   2.7957   4.0963   5.8699
     7.8547   8.3755  10.6549  11.5948

          k =-0.0144-0.8087 0.7092 (  2450 PWs)   bands (ev):

   -13.2322 -11.7410 -11.0658  -7.8546  -5.2890  -4.0137  -3.6047  -2.6110
    -2.1020  -1.9791  -1.2136  -0.0239   1.3543   2.9564   4.5026   5.1468
     6.1136   7.5974   8.5254  10.6760

          k =-0.0140-0.8085-1.4192 (  2468 PWs)   bands (ev):

   -10.7922  -9.4403  -8.7079  -8.2458  -8.0869  -8.0259  -4.3458  -4.1809
    -1.7893  -1.7419  -1.4634   1.6374   2.9170   3.3532   3.8332   4.2178
     5.2492   5.4590   8.1689   8.8222

          k =-0.4869 0.0023 0.0001 (  2466 PWs)   bands (ev):

   -15.0514 -12.3540 -10.4003  -8.2736  -8.1070  -4.8960  -2.1553  -1.3065
    -0.0861   0.1143   0.8842   1.2870   1.8061   2.8467   3.3026   5.5843
     7.7392   8.4320   9.8986  10.6052

          k =-0.4871 0.0022 0.7096 (  2460 PWs)   bands (ev):

   -13.9512 -11.3092  -9.4584  -7.4997  -7.4249  -4.8556  -3.9969  -2.5265
    -1.9818  -1.4690  -0.3889   1.0144   1.4380   3.0519   3.6438   4.7017
     6.3077   7.6072   8.3931  10.1698

          k =-0.4867 0.0025-1.4188 (  2452 PWs)   bands (ev):

   -11.2665 -10.2119  -8.5602  -8.3074  -6.6601  -5.9171  -4.0784  -4.0458
    -3.8656  -3.8262  -1.3335   1.1981   3.3778   3.9416   4.3029   4.4171
     4.8324   5.2619   8.0775   8.4434

          k =-0.5012-0.8063-0.0002 (  2454 PWs)   bands (ev):

   -14.3168 -12.7861 -12.1282  -8.6004  -5.4765  -3.0584  -2.7430  -1.5922
    -0.9191  -0.1585   0.0012   0.0185   1.0135   2.8728   4.1177   6.2155
     7.5443   8.3731  10.6535  11.5349

          k =-0.5013-0.8064 0.7093 (  2452 PWs)   bands (ev):

   -13.2298 -11.7327 -11.0878  -7.8332  -5.2824  -4.0235  -3.5934  -2.6582
    -2.1095  -1.9342  -1.2218   0.1068   1.0829   3.0099   4.6573   4.9796
     6.3719   7.6302   8.2508  10.7579

          k =-0.5009-0.8062-1.4191 (  2456 PWs)   bands (ev):

   -10.7918  -9.4314  -8.7004  -8.2923  -8.0569  -8.0360  -4.3361  -4.1671
    -1.7918  -1.7419  -1.4542   1.5383   2.8859   3.6087   4.2213   4.2532
     4.4544   5.4810   8.2841   8.7650

     the Fermi energy is     5.2894 ev

!    total energy              =     -90.50130946 Ry
     Harris-Foulkes estimate   =     -90.50130947 Ry
     estimated scf accuracy    <       0.00000002 Ry

     The total energy is the sum of the following terms:

     one-electron contribution =     -49.28509382 Ry
     hartree contribution      =      38.85653740 Ry
     xc contribution           =     -27.49219577 Ry
     ewald contribution        =     -52.58014309 Ry
     smearing contrib. (-TS)   =      -0.00041419 Ry

     convergence has been achieved in   9 iterations

     Forces acting on atoms (cartesian axes, Ry/au):

     atom    1 type  1   force =    -0.01714167    0.00332837    0.00006038
     atom    2 type  1   force =    -0.00258321   -0.00474479   -0.00030477
     atom    3 type  1   force =     0.01956747   -0.00317794   -0.00002704
     atom    4 type  1   force =    -0.00401959   -0.00160095   -0.00031197
     atom    5 type  1   force =     0.00434800   -0.00438773    0.00024025
     atom    6 type  1   force =    -0.00638925    0.00131632   -0.00016723
     atom    7 type  1   force =    -0.00931640   -0.00142064    0.00026069
     atom    8 type  1   force =     0.01553465    0.01068736    0.00024969

     Total force =     0.035655     Total SCF correction =     0.000283


     Computing stress (Cartesian axis) and pressure

          total   stress  (Ry/bohr**3)                   (kbar)     P=        0.57
   0.00013903   0.00003448   0.00000213           20.45        5.07        0.31
   0.00003448  -0.00003578   0.00000112            5.07       -5.26        0.17
   0.00000213   0.00000112  -0.00009168            0.31        0.17      -13.49


     number of scf cycles    =   5
     number of bfgs steps    =   4

     enthalpy old            =     -90.4992956044 Ry
     enthalpy new            =     -90.5012734239 Ry

     CASE: enthalpy_new < enthalpy_old

     new trust radius        =       0.0325834137 bohr
     new conv_thr            =       0.0000001957 Ry

     new unit-cell volume =    530.26813 a.u.^3 (    78.57763 Ang^3 )
     density =      2.02872 g/cm^3

CELL_PARAMETERS (bohr)
  13.780245048  -0.219608835   0.003262744
   0.057459990   8.209228256   0.001398461
   0.001199852  -0.001605370   4.686922916

ATOMIC_POSITIONS (crystal)
C             0.7685263723        0.9680094919        0.6876457949
C             0.6878317802        1.0763916662        0.1878241266
C             0.9002800848        0.7467110253        0.6872712146
C             0.3155898928        0.1511298561        0.6957522206
C             0.3460800022        0.3306232693        0.1957437987
C             0.3084847903        0.6655536380        0.1959101272
C             0.3051048016        0.8256647519        0.6956148855
C             0.5450712759        0.2738883013        0.1862768319



     Writing output data file ./pp.save/
     NEW-OLD atomic charge density approx. for the potential
     extrapolated charge   32.00816, renormalised to   32.00000

     total cpu time spent up to now is       70.4 secs

     Self-consistent Calculation

     iteration #  1     ecut=    40.00 Ry     beta= 0.50
     Davidson diagonalization with overlap
     ethr =  1.00E-06,  avg # of iterations =  6.5

     total cpu time spent up to now is       74.2 secs

     total energy              =     -90.50271418 Ry
     Harris-Foulkes estimate   =     -90.49253984 Ry
     estimated scf accuracy    <       0.00112881 Ry

     iteration #  2     ecut=    40.00 Ry     beta= 0.50
     Davidson diagonalization with overlap
     ethr =  3.53E-06,  avg # of iterations =  3.8

     total cpu time spent up to now is       76.3 secs

     total energy              =     -90.50251641 Ry
     Harris-Foulkes estimate   =     -90.50358204 Ry
     estimated scf accuracy    <       0.00410268 Ry

     iteration #  3     ecut=    40.00 Ry     beta= 0.50
     Davidson diagonalization with overlap
     ethr =  3.53E-06,  avg # of iterations =  3.3

     total cpu time spent up to now is       78.3 secs

     total energy              =     -90.50306169 Ry
     Harris-Foulkes estimate   =     -90.50311916 Ry
     estimated scf accuracy    <       0.00024259 Ry

     iteration #  4     ecut=    40.00 Ry     beta= 0.50
     Davidson diagonalization with overlap
     ethr =  7.58E-07,  avg # of iterations =  1.5

     total cpu time spent up to now is       79.6 secs

     total energy              =     -90.50308989 Ry
     Harris-Foulkes estimate   =     -90.50309960 Ry
     estimated scf accuracy    <       0.00003178 Ry

     iteration #  5     ecut=    40.00 Ry     beta= 0.50
     Davidson diagonalization with overlap
     ethr =  9.93E-08,  avg # of iterations =  2.3

     total cpu time spent up to now is       81.2 secs

     total energy              =     -90.50309224 Ry
     Harris-Foulkes estimate   =     -90.50310114 Ry
     estimated scf accuracy    <       0.00003474 Ry

     iteration #  6     ecut=    40.00 Ry     beta= 0.50
     Davidson diagonalization with overlap
     ethr =  9.93E-08,  avg # of iterations =  1.7

     total cpu time spent up to now is       82.7 secs

     total energy              =     -90.50309730 Ry
     Harris-Foulkes estimate   =     -90.50309798 Ry
     estimated scf accuracy    <       0.00000362 Ry

     iteration #  7     ecut=    40.00 Ry     beta= 0.50
     Davidson diagonalization with overlap
     ethr =  1.13E-08,  avg # of iterations =  1.8

     total cpu time spent up to now is       84.2 secs

     total energy              =     -90.50309783 Ry
     Harris-Foulkes estimate   =     -90.50309787 Ry
     estimated scf accuracy    <       0.00000028 Ry

     iteration #  8     ecut=    40.00 Ry     beta= 0.50
     Davidson diagonalization with overlap
     ethr =  8.85E-10,  avg # of iterations =  2.2

     total cpu time spent up to now is       86.0 secs

     End of self-consistent calculation

          k = 0.0000 0.0000 0.0000 (  2473 PWs)   bands (ev):

   -15.0337 -12.3472 -10.4035  -8.2485  -8.1695  -4.7770  -2.5414  -1.2333
    -0.1536   0.4023   0.8906   1.5666   1.9611   2.7446   3.1538   5.1779
     7.7888   8.4764   9.5330  10.6097

          k =-0.0002-0.0001 0.7111 (  2445 PWs)   bands (ev):

   -13.9275 -11.2982  -9.4537  -7.5020  -7.4241  -4.7879  -3.9445  -2.5949
    -2.0602  -1.3846  -0.4593   0.8388   1.9497   2.9070   3.5560   4.7469
     6.0994   7.5218   8.4225   9.9186

          k = 0.0003 0.0002-1.4223 (  2450 PWs)   bands (ev):

   -11.2066 -10.2114  -8.5620  -8.2509  -6.6023  -5.8559  -4.0790  -4.0620
    -3.9155  -3.8798  -1.3340   1.3708   3.3474   3.5691   4.1195   4.2059
     5.3789   5.4129   8.1085   8.4010

          k =-0.0129-0.8119-0.0003 (  2472 PWs)   bands (ev):

   -14.2564 -12.8388 -12.1224  -8.6163  -5.5158  -3.0752  -2.7264  -1.6312
    -1.0206  -0.0548   0.0984   0.2291   1.0142   2.7665   4.0682   5.7679
     7.7884   8.4275  10.6485  11.6079

          k =-0.0131-0.8121 0.7109 (  2450 PWs)   bands (ev):

   -13.1632 -11.7793 -11.0780  -7.8302  -5.2563  -4.0124  -3.5840  -2.6243
    -2.1035  -1.9652  -1.2090   0.0011   1.3174   2.9335   4.4884   5.1832
     6.0341   7.5499   8.4505  10.6647

          k =-0.0126-0.8117-1.4225 (  2468 PWs)   bands (ev):

   -10.7060  -9.4212  -8.7136  -8.2205  -8.0598  -8.0180  -4.3765  -4.1785
    -1.7972  -1.7544  -1.4818   1.7050   2.9307   3.3226   3.8244   4.1703
     5.2085   5.4568   8.1449   8.7829

          k =-0.4837 0.0034 0.0001 (  2466 PWs)   bands (ev):

   -15.0302 -12.3756 -10.3517  -8.2769  -8.1527  -4.9163  -2.1833  -1.2330
    -0.0714   0.0626   0.8875   1.2026   1.9641   2.8616   3.3001   5.5303
     7.5985   8.4806   9.9106  10.5951

          k =-0.4839 0.0033 0.7113 (  2460 PWs)   bands (ev):

   -13.9242 -11.3249  -9.4041  -7.5143  -7.4319  -4.7983  -4.0171  -2.5443
    -1.9578  -1.3842  -0.4626   1.0307   1.3988   3.0495   3.6616   4.7111
     6.2645   7.5538   8.2784  10.1539

          k =-0.4833 0.0036-1.4221 (  2452 PWs)   bands (ev):

   -11.2053 -10.2072  -8.5715  -8.2683  -6.5871  -5.8333  -4.0910  -4.0544
    -3.9041  -3.8845  -1.3574   1.2378   3.3851   3.9814   4.2621   4.3927
     4.7669   5.2508   8.0027   8.4488

          k =-0.4966-0.8085-0.0001 (  2454 PWs)   bands (ev):

   -14.2538 -12.8308 -12.1443  -8.5927  -5.5002  -3.0977  -2.7642  -1.5980
    -0.9243  -0.0531   0.0035   0.0971   1.0137   2.8541   4.0748   6.1295
     7.4467   8.4260  10.6479  11.5560

          k =-0.4968-0.8087 0.7110 (  2452 PWs)   bands (ev):

   -13.1608 -11.7719 -11.0980  -7.8109  -5.2469  -4.0210  -3.5752  -2.6711
    -2.1071  -1.9263  -1.2156   0.1220   1.0612   2.9821   4.6605   4.9915
     6.3097   7.5770   8.1676  10.7554

          k =-0.4963-0.8083-1.4224 (  2456 PWs)   bands (ev):

   -10.7056  -9.4129  -8.7061  -8.2657  -8.0366  -8.0210  -4.3677  -4.1661
    -1.7975  -1.7544  -1.4732   1.5954   2.9038   3.6417   4.1557   4.1934
     4.4068   5.4961   8.2762   8.7296

     the Fermi energy is     5.2835 ev

!    total energy              =     -90.50309789 Ry
     Harris-Foulkes estimate   =     -90.50309790 Ry
     estimated scf accuracy    <       0.00000004 Ry

     The total energy is the sum of the following terms:

     one-electron contribution =     -49.59263597 Ry
     hartree contribution      =      39.01610094 Ry
     xc contribution           =     -27.49253149 Ry
     ewald contribution        =     -52.43335867 Ry
     smearing contrib. (-TS)   =      -0.00067271 Ry

     convergence has been achieved in   8 iterations

     Forces acting on atoms (cartesian axes, Ry/au):

     atom    1 type  1   force =    -0.00096984   -0.01072418   -0.00008328
     atom    2 type  1   force =    -0.00480567   -0.00325951   -0.00012588
     atom    3 type  1   force =     0.00439431    0.00962673   -0.00002047
     atom    4 type  1   force =    -0.00065945    0.01374872   -0.00012670
     atom    5 type  1   force =     0.00463301   -0.01978629   -0.00041240
     atom    6 type  1   force =    -0.00745082    0.01447966   -0.00005275
     atom    7 type  1   force =    -0.00451860   -0.01384190    0.00013809
     atom    8 type  1   force =     0.00937706    0.00975677    0.00068338

     Total force =     0.039052     Total SCF correction =     0.000392


     Computing stress (Cartesian axis) and pressure

          total   stress  (Ry/bohr**3)                   (kbar)     P=        2.77
   0.00006157   0.00006697   0.00000507            9.06        9.85        0.75
   0.00006697   0.00002801   0.00000092            9.85        4.12        0.14
   0.00000507   0.00000092  -0.00003307            0.75        0.14       -4.86


     number of scf cycles    =   6
     number of bfgs steps    =   5

     enthalpy old            =     -90.5012734239 Ry
     enthalpy new            =     -90.5030618417 Ry

     CASE: enthalpy_new < enthalpy_old

     new trust radius        =       0.0534626394 bohr
     new conv_thr            =       0.0000001788 Ry

     new unit-cell volume =    531.45920 a.u.^3 (    78.75413 Ang^3 )
     density =      2.02417 g/cm^3

CELL_PARAMETERS (bohr)
  13.914633157  -0.167480815   0.006345523
   0.101766857   8.172146684   0.002209256
   0.002294002  -0.001262562   4.673013014

ATOMIC_POSITIONS (crystal)
C             0.7675682321        0.9647540227        0.6875682502
C             0.6873235160        1.0741461187        0.1877158247
C             0.9032430952        0.7487648518        0.6872580615
C             0.3146218465        0.1510471371        0.6957317779
C             0.3482402397        0.3290524646        0.1956096823
C             0.3067160685        0.6650692801        0.1957978805
C             0.3024815354        0.8253755592        0.6957876305
C             0.5467744666        0.2797625657        0.1865698925



     Writing output data file ./pp.save/
     NEW-OLD atomic charge density approx. for the potential
     extrapolated charge   32.07172, renormalised to   32.00000

     total cpu time spent up to now is       86.1 secs

     Self-consistent Calculation

     iteration #  1     ecut=    40.00 Ry     beta= 0.50
     Davidson diagonalization with overlap
     ethr =  1.00E-06,  avg # of iterations =  7.2

     total cpu time spent up to now is       91.0 secs

     total energy              =     -90.50334948 Ry
     Harris-Foulkes estimate   =     -90.40934478 Ry
     estimated scf accuracy    <       0.00262484 Ry

     iteration #  2     ecut=    40.00 Ry     beta= 0.50
     Davidson diagonalization with overlap
     ethr =  8.20E-06,  avg # of iterations =  3.3

     total cpu time spent up to now is       93.5 secs

     total energy              =     -90.50302935 Ry
     Harris-Foulkes estimate   =     -90.50784574 Ry
     estimated scf accuracy    <       0.02629379 Ry

     iteration #  3     ecut=    40.00 Ry     beta= 0.50
     Davidson diagonalization with overlap
     ethr =  8.20E-06,  avg # of iterations =  2.6

     total cpu time spent up to now is       95.6 secs

     total energy              =     -90.50481628 Ry
     Harris-Foulkes estimate   =     -90.50496514 Ry
     estimated scf accuracy    <       0.00065307 Ry

     iteration #  4     ecut=    40.00 Ry     beta= 0.50
     Davidson diagonalization with overlap
     ethr =  2.04E-06,  avg # of iterations =  3.0

     total cpu time spent up to now is       97.7 secs

     total energy              =     -90.50482352 Ry
     Harris-Foulkes estimate   =     -90.50491877 Ry
     estimated scf accuracy    <       0.00031205 Ry

     iteration #  5     ecut=    40.00 Ry     beta= 0.50
     Davidson diagonalization with overlap
     ethr =  9.75E-07,  avg # of iterations =  1.9

     total cpu time spent up to now is       99.3 secs

     total energy              =     -90.50487342 Ry
     Harris-Foulkes estimate   =     -90.50490459 Ry
     estimated scf accuracy    <       0.00015994 Ry

     iteration #  6     ecut=    40.00 Ry     beta= 0.50
     Davidson diagonalization with overlap
     ethr =  5.00E-07,  avg # of iterations =  1.0

     total cpu time spent up to now is      100.7 secs

     total energy              =     -90.50488765 Ry
     Harris-Foulkes estimate   =     -90.50489198 Ry
     estimated scf accuracy    <       0.00002516 Ry

     iteration #  7     ecut=    40.00 Ry     beta= 0.50
     Davidson diagonalization with overlap
     ethr =  7.86E-08,  avg # of iterations =  1.2

     total cpu time spent up to now is      102.1 secs

     total energy              =     -90.50488969 Ry
     Harris-Foulkes estimate   =     -90.50489003 Ry
     estimated scf accuracy    <       0.00000239 Ry

     iteration #  8     ecut=    40.00 Ry     beta= 0.50
     Davidson diagonalization with overlap
     ethr =  7.46E-09,  avg # of iterations =  2.2

     total cpu time spent up to now is      104.0 secs

     total energy              =     -90.50489001 Ry
     Harris-Foulkes estimate   =     -90.50489006 Ry
     estimated scf accuracy    <       0.00000026 Ry

     iteration #  9     ecut=    40.00 Ry     beta= 0.50
     Davidson diagonalization with overlap
     ethr =  8.19E-10,  avg # of iterations =  2.1

     total cpu time spent up to now is      106.0 secs

     End of self-consistent calculation

          k = 0.0000 0.0000 0.0000 (  2473 PWs)   bands (ev):

   -15.0103 -12.4022 -10.3986  -8.2284  -8.2018  -4.8346  -2.5991  -1.2018
    -0.1257   0.3168   0.8880   1.4591   2.0113   2.6823   3.2086   5.1583
     7.5862   8.4988   9.5706  10.5813

          k =-0.0003-0.0002 0.7133 (  2445 PWs)   bands (ev):

   -13.8980 -11.3451  -9.4448  -7.4863  -7.4209  -4.7531  -4.0182  -2.6170
    -2.0818  -1.3624  -0.4437   0.8667   1.8174   2.8782   3.5301   4.7807
     6.0181   7.4542   8.2511   9.9011

          k = 0.0007 0.0004-1.4265 (  2450 PWs)   bands (ev):

   -11.1368 -10.2057  -8.5648  -8.2842  -6.5696  -5.8320  -4.1159  -4.0894
    -3.9105  -3.8861  -1.3814   1.4491   3.3529   3.4997   4.0603   4.1722
     5.2836   5.3793   7.9147   8.3194

          k =-0.0098-0.8156-0.0002 (  2472 PWs)   bands (ev):

   -14.1853 -12.8885 -12.1759  -8.6531  -5.5789  -3.0999  -2.7170  -1.6322
    -0.9515  -0.0485   0.1524   0.1741   1.0086   2.6959   3.9849   5.6004
     7.6530   8.4592  10.6236  11.5823

          k =-0.0101-0.8158 0.7130 (  2450 PWs)   bands (ev):

   -13.0863 -11.8232 -11.1232  -7.8514  -5.2480  -3.9961  -3.5966  -2.6360
    -2.1274  -1.9670  -1.1974   0.0563   1.2470   2.8889   4.4066   5.1863
     5.9104   7.4809   8.3215  10.6258

          k =-0.0092-0.8152-1.4267 (  2468 PWs)   bands (ev):

   -10.6086  -9.3918  -8.7047  -8.2554  -8.0758  -8.0259  -4.4442  -4.2209
    -1.7980  -1.7544  -1.4903   1.8144   2.9468   3.2293   3.7897   4.1028
     5.1195   5.4380   8.0506   8.6430

          k =-0.4790 0.0060 0.0002 (  2466 PWs)   bands (ev):

   -15.0068 -12.4295 -10.3454  -8.2582  -8.1896  -4.9709  -2.2305  -1.2014
    -0.0805  -0.0133   0.8853   1.1238   2.0140   2.8589   3.3214   5.4600
     7.3949   8.5039   9.9618  10.5674

          k =-0.4793 0.0058 0.7135 (  2460 PWs)   bands (ev):

   -13.8948 -11.3708  -9.3942  -7.4876  -7.4441  -4.7639  -4.0880  -2.5699
    -1.9653  -1.3666  -0.4466   1.0404   1.3011   3.0170   3.6406   4.7281
     6.1698   7.4678   8.1295  10.1446

          k =-0.4783 0.0063-1.4263 (  2452 PWs)   bands (ev):

   -11.1355 -10.2018  -8.5743  -8.3002  -6.5536  -5.8092  -4.1111  -4.0980
    -3.9056  -3.8904  -1.4033   1.3081   3.3870   3.9500   4.2142   4.3632
     4.6457   5.2038   7.8229   8.3814

          k =-0.4888-0.8096 0.0000 (  2454 PWs)   bands (ev):

   -14.1828 -12.8816 -12.1951  -8.6346  -5.5544  -3.1220  -2.7639  -1.5840
    -0.9061  -0.0475  -0.0295   0.1732   1.0083   2.8085   3.9646   5.9791
     7.2741   8.4580  10.6243  11.5447

          k =-0.4891-0.8098 0.7133 (  2452 PWs)   bands (ev):

   -13.0840 -11.8168 -11.1406  -7.8363  -5.2328  -4.0018  -3.5930  -2.6829
    -2.1293  -1.9338  -1.1956   0.1573   1.0103   2.9341   4.5991   4.9685
     6.2036   7.4905   8.0424  10.7207

          k =-0.4882-0.8092-1.4265 (  2456 PWs)   bands (ev):

   -10.6083  -9.3838  -8.6969  -8.2980  -8.0470  -8.0357  -4.4375  -4.2112
    -1.7938  -1.7483  -1.4899   1.6941   2.9297   3.6096   4.0564   4.0692
     4.3571   5.5008   8.2037   8.5991

     the Fermi energy is     5.2457 ev

!    total energy              =     -90.50489006 Ry
     Harris-Foulkes estimate   =     -90.50489007 Ry
     estimated scf accuracy    <       0.00000003 Ry

     The total energy is the sum of the following terms:

     one-electron contribution =     -50.21311258 Ry
     hartree contribution      =      39.31497925 Ry
     xc contribution           =     -27.49680148 Ry
     ewald contribution        =     -52.10928423 Ry
     smearing contrib. (-TS)   =      -0.00067101 Ry

     convergence has been achieved in   9 iterations

     Forces acting on atoms (cartesian axes, Ry/au):

     atom    1 type  1   force =     0.00180682   -0.00877846   -0.00037078
     atom    2 type  1   force =    -0.01123947    0.00261293    0.00024579
     atom    3 type  1   force =    -0.00015484    0.00870266   -0.00009783
     atom    4 type  1   force =     0.00325305    0.01078771   -0.00030712
     atom    5 type  1   force =    -0.00427670   -0.01264244   -0.00057833
     atom    6 type  1   force =    -0.00491223    0.00757290    0.00016129
     atom    7 type  1   force =     0.00161858   -0.00651731   -0.00014676
     atom    8 type  1   force =     0.01390479   -0.00173800    0.00109375

     Total force =     0.030317     Total SCF correction =     0.000283


     Computing stress (Cartesian axis) and pressure

          total   stress  (Ry/bohr**3)                   (kbar)     P=        7.83
   0.00000866   0.00008295   0.00000871            1.27       12.20        1.28
   0.00008295   0.00006400   0.00000098           12.20        9.42        0.14
   0.00000871   0.00000098   0.00008710            1.28        0.14       12.81


     number of scf cycles    =   7
     number of bfgs steps    =   6

     enthalpy old            =     -90.5030618417 Ry
     enthalpy new            =     -90.5048539359 Ry

     CASE: enthalpy_new < enthalpy_old

     new trust radius        =       0.0421684861 bohr
     new conv_thr            =       0.0000001390 Ry

     new unit-cell volume =    535.36120 a.u.^3 (    79.33234 Ang^3 )
     density =      2.00942 g/cm^3

CELL_PARAMETERS (bohr)
  14.006647398  -0.107098055   0.011430870
   0.152632476   8.169624375   0.003093791
   0.004137378  -0.000911425   4.677877594

ATOMIC_POSITIONS (crystal)
C             0.7668014737        0.9619926700        0.6874151945
C             0.6863225710        1.0727135331        0.1877170462
C             0.9052939812        0.7508509161        0.6872195446
C             0.3142783262        0.1511180561        0.6956278584
C             0.3492165480        0.3275079975        0.1953868089
C             0.3052484571        0.6646709269        0.1957625396
C             0.3009411120        0.8256343074        0.6958640375
C             0.5488665308        0.2834835928        0.1870459703



     Writing output data file ./pp.save/
     NEW-OLD atomic charge density approx. for the potential
     extrapolated charge   32.23323, renormalised to   32.00000

     total cpu time spent up to now is      106.1 secs

     Self-consistent Calculation

     iteration #  1     ecut=    40.00 Ry     beta= 0.50
     Davidson diagonalization with overlap
     ethr =  1.00E-06,  avg # of iterations =  9.5

     total cpu time spent up to now is      112.5 secs

     total energy              =     -90.48505098 Ry
     Harris-Foulkes estimate   =     -90.19400985 Ry
     estimated scf accuracy    <       0.02455711 Ry

     iteration #  2     ecut=    40.00 Ry     beta= 0.50
     Davidson diagonalization with overlap
     ethr =  7.67E-05,  avg # of iterations =  4.3

     total cpu time spent up to now is      115.7 secs

     total energy              =     -90.47274836 Ry
     Harris-Foulkes estimate   =     -90.55303631 Ry
     estimated scf accuracy    <       0.51341314 Ry

     iteration #  3     ecut=    40.00 Ry     beta= 0.50
     Davidson diagonalization with overlap
     ethr =  7.67E-05,  avg # of iterations =  3.2

     total cpu time spent up to now is      118.4 secs

     total energy              =     -90.50574326 Ry
     Harris-Foulkes estimate   =     -90.50750846 Ry
     estimated scf accuracy    <       0.01468158 Ry

     iteration #  4     ecut=    40.00 Ry     beta= 0.50
     Davidson diagonalization with overlap
     ethr =  4.59E-05,  avg # of iterations =  1.0

     total cpu time spent up to now is      119.9 secs

     total energy              =     -90.50582354 Ry
     Harris-Foulkes estimate   =     -90.50650747 Ry
     estimated scf accuracy    <       0.00710332 Ry

     iteration #  5     ecut=    40.00 Ry     beta= 0.50
     Davidson diagonalization with overlap
     ethr =  2.22E-05,  avg # of iterations =  1.0

     total cpu time spent up to now is      121.3 secs

     total energy              =     -90.50555193 Ry
     Harris-Foulkes estimate   =     -90.50600639 Ry
     estimated scf accuracy    <       0.00294601 Ry

     iteration #  6     ecut=    40.00 Ry     beta= 0.50
     Davidson diagonalization with overlap
     ethr =  9.21E-06,  avg # of iterations =  2.1

     total cpu time spent up to now is      123.3 secs

     total energy              =     -90.50565442 Ry
     Harris-Foulkes estimate   =     -90.50572749 Ry
     estimated scf accuracy    <       0.00032651 Ry

     iteration #  7     ecut=    40.00 Ry     beta= 0.50
     Davidson diagonalization with overlap
     ethr =  1.02E-06,  avg # of iterations =  3.4

     total cpu time spent up to now is      126.0 secs

     total energy              =     -90.50570533 Ry
     Harris-Foulkes estimate   =     -90.50570916 Ry
     estimated scf accuracy    <       0.00001100 Ry

     iteration #  8     ecut=    40.00 Ry     beta= 0.50
     Davidson diagonalization with overlap
     ethr =  3.44E-08,  avg # of iterations =  3.0

     total cpu time spent up to now is      128.8 secs

     total energy              =     -90.50570873 Ry
     Harris-Foulkes estimate   =     -90.50570920 Ry
     estimated scf accuracy    <       0.00000181 Ry

     iteration #  9     ecut=    40.00 Ry     beta= 0.50
     Davidson diagonalization with overlap
     ethr =  5.65E-09,  avg # of iterations =  2.0

     total cpu time spent up to now is      130.8 secs

     total energy              =     -90.50570890 Ry
     Harris-Foulkes estimate   =     -90.50570910 Ry
     estimated scf accuracy    <       0.00000140 Ry

     iteration # 10     ecut=    40.00 Ry     beta= 0.50
[...]

     Total force =     0.095517     Total SCF correction =     0.000978


     Computing stress (Cartesian axis) and pressure

          total   stress  (Ry/bohr**3)                   (kbar)     P=       23.38
   0.00029383  -0.00002971   0.00009939           43.22       -4.37       14.62
  -0.00002971   0.00003538  -0.00002560           -4.37        5.20       -3.77
   0.00009939  -0.00002560   0.00014752           14.62       -3.77       21.70


     number of scf cycles    =  36
     number of bfgs steps    =  35

     enthalpy old            =     -90.5983733609 Ry
     enthalpy new            =     -90.6092061956 Ry

     CASE: enthalpy_new < enthalpy_old

     new trust radius        =       0.2044156561 bohr
     new conv_thr            =       0.0000005887 Ry

     new unit-cell volume =    485.21493 a.u.^3 (    71.90143 Ang^3 )
     density =      2.21709 g/cm^3

CELL_PARAMETERS (bohr)
  13.287437886   1.218618591   0.953044430
   1.460817506   7.942768004  -0.005527280
   0.382601059   0.025467602   4.703949230

ATOMIC_POSITIONS (crystal)
C             0.8167656587        0.8855734683        0.5680669683
C             0.7101595718        1.0106642860        0.1107828384
C             1.0073822462        0.7165840226        0.5018440966
C             0.2814051466        0.1929934863        0.7833980530
C             0.3338209033        0.3566852608        0.2660374780
C             0.2198831497        0.7237237523        0.3286085858
C             0.2571248926        0.8919119098        0.8076622951
C             0.5504274311        0.2598358139        0.1656386849



     Writing output data file ./pp.save/
     NEW-OLD atomic charge density approx. for the potential
     extrapolated charge   32.23539, renormalised to   32.00000

     total cpu time spent up to now is     2454.6 secs

     Self-consistent Calculation

     iteration #  1     ecut=    40.00 Ry     beta= 0.50
     Davidson diagonalization with overlap
     ethr =  1.00E-06,  avg # of iterations =  9.4

     total cpu time spent up to now is     2492.9 secs

     total energy              =     -90.60668978 Ry
     Harris-Foulkes estimate   =     -90.40613140 Ry
     estimated scf accuracy    <       0.03031170 Ry

     iteration #  2     ecut=    40.00 Ry     beta= 0.50
     Davidson diagonalization with overlap
     ethr =  9.47E-05,  avg # of iterations =  3.4

     total cpu time spent up to now is     2507.5 secs

     total energy              =     -90.60169472 Ry
     Harris-Foulkes estimate   =     -90.64141955 Ry
     estimated scf accuracy    <       0.17474754 Ry

     iteration #  3     ecut=    40.00 Ry     beta= 0.50
     Davidson diagonalization with overlap
     ethr =  9.47E-05,  avg # of iterations =  2.2

     total cpu time spent up to now is     2519.0 secs

     total energy              =     -90.61900561 Ry
     Harris-Foulkes estimate   =     -90.62244444 Ry
     estimated scf accuracy    <       0.01148271 Ry

     iteration #  4     ecut=    40.00 Ry     beta= 0.50
     Davidson diagonalization with overlap
     ethr =  3.59E-05,  avg # of iterations =  2.8

     total cpu time spent up to now is     2531.0 secs

     total energy              =     -90.62065098 Ry
     Harris-Foulkes estimate   =     -90.62101078 Ry
     estimated scf accuracy    <       0.00150824 Ry

     iteration #  5     ecut=    40.00 Ry     beta= 0.50
     Davidson diagonalization with overlap
     ethr =  4.71E-06,  avg # of iterations =  2.7

     total cpu time spent up to now is     2543.0 secs

     total energy              =     -90.62087043 Ry
     Harris-Foulkes estimate   =     -90.62091401 Ry
     estimated scf accuracy    <       0.00017931 Ry

     iteration #  6     ecut=    40.00 Ry     beta= 0.50
     Davidson diagonalization with overlap
     ethr =  5.60E-07,  avg # of iterations =  2.0

     total cpu time spent up to now is     2553.5 secs

     total energy              =     -90.62089773 Ry
     Harris-Foulkes estimate   =     -90.62090649 Ry
     estimated scf accuracy    <       0.00003408 Ry

     iteration #  7     ecut=    40.00 Ry     beta= 0.50
     Davidson diagonalization with overlap
     ethr =  1.06E-07,  avg # of iterations =  2.0

     total cpu time spent up to now is     2563.9 secs

     total energy              =     -90.62090311 Ry
     Harris-Foulkes estimate   =     -90.62090274 Ry
     estimated scf accuracy    <       0.00000235 Ry

     iteration #  8     ecut=    40.00 Ry     beta= 0.50
     Davidson diagonalization with overlap
     ethr =  7.34E-09,  avg # of iterations =  2.8

     total cpu time spent up to now is     2577.3 secs

     End of self-consistent calculation

          k = 0.0000 0.0000 0.0000 (  2473 PWs)   bands (ev):

   -13.4115 -11.1890  -9.8482  -7.0869  -6.7123  -3.4296  -3.2690   0.2617
     0.9141   0.9896   1.9834   2.3145   3.4192   4.3993   5.3211   7.1596
     8.7994   9.3748  11.0913  12.0384

          k =-0.0520 0.0101 0.7127 (  2445 PWs)   bands (ev):

   -12.3064 -10.2158  -8.7889  -6.5524  -5.9326  -3.2511  -2.7397  -2.1543
    -1.2235   0.2832   0.6814   1.1429   2.0072   3.7304   4.7549   6.5562
     7.2348   8.5129   9.5127  12.5144

          k = 0.1041-0.0201-1.4255 (  2450 PWs)   bands (ev):

    -9.6568  -8.5849  -7.9594  -7.2636  -5.6390  -4.2549  -3.0840  -2.9801
    -2.6043  -1.7442  -0.8628   0.4991   2.7454   4.3294   4.5815   4.8769
     6.0703   8.9489   9.1168  10.0682

          k = 0.0784-0.8537-0.0018 (  2472 PWs)   bands (ev):

   -12.2826 -12.0038 -10.9286  -7.5155  -6.2412  -2.2917  -1.2833  -0.6521
     0.0550   1.0409   1.8501   2.1344   2.7236   4.0764   4.1580   8.1436
     8.7661   9.5855  11.1933  12.8569

          k = 0.0264-0.8436 0.7110 (  2450 PWs)   bands (ev):

   -11.2415 -10.9113  -9.8828  -6.9128  -5.4000  -2.4687  -2.1199  -1.5548
    -1.1041  -0.8709   0.2010   0.9082   1.9931   4.1901   4.6700   5.8592
     7.5380   8.7447   9.8784  12.1080

          k = 0.1825-0.8738-1.4272 (  2468 PWs)   bands (ev):

    -9.1098  -8.2022  -7.8227  -7.1689  -6.6005  -6.2009  -3.6818  -3.2072
    -1.8407  -0.9178   0.5298   1.2327   3.2722   3.9440   4.3578   4.5081
     5.4742   9.3073   9.7804  10.2344

          k =-0.5133 0.0944 0.0412 (  2466 PWs)   bands (ev):

   -13.3382 -11.6335  -8.8189  -7.8887  -6.6021  -4.5679  -1.3267  -0.5167
     0.9198   1.1756   2.1182   2.6118   3.0157   4.2523   4.8817   6.6029
     9.0981  10.5399  11.2292  11.9635

          k =-0.5653 0.1045 0.7540 (  2460 PWs)   bands (ev):

   -12.2477 -10.5613  -8.0001  -7.0332  -6.0097  -3.8102  -2.5791  -1.4310
    -1.0023  -0.2320   0.7012   1.0164   2.3538   3.6010   4.8571   6.3989
     6.8541   8.0558  10.9115  11.9677

          k =-0.4092 0.0743-1.3842 (  2452 PWs)   bands (ev):

    -9.6502  -8.5297  -8.0147  -7.3744  -5.5139  -4.0205  -3.2710  -3.0389
    -2.5518  -1.8054  -1.0414   0.6648   2.6669   4.3449   4.6997   4.9742
     5.9694   8.9743   9.4184   9.7460

          k =-0.4349-0.7593 0.0395 (  2454 PWs)   bands (ev):

   -12.4700 -11.7132 -10.9180  -8.2969  -4.4880  -3.6153  -1.4844  -0.5193
     0.2713   0.6222   1.8254   2.3235   2.5195   3.9328   5.8183   7.1570
     9.0749  10.0464  10.5942  12.3456

          k =-0.4869-0.7492 0.7522 (  2452 PWs)   bands (ev):

   -11.3980 -10.6558  -9.8879  -7.4692  -4.3052  -2.9859  -2.2047  -1.9786
    -1.0892  -0.3843   0.1768   0.8618   1.5830   4.0741   5.3531   6.2907
     7.1637   8.1739  10.3830  12.1215

          k =-0.3308-0.7794-1.3860 (  2456 PWs)   bands (ev):

    -9.1208  -8.2224  -7.7938  -7.1215  -6.5721  -6.2348  -3.8256  -3.3659
    -1.5134  -0.6736   0.3029   1.1552   3.3300   3.9334   4.3894   4.5337
     5.2391   9.2145   9.7625  10.4483

     the Fermi energy is     6.6357 ev

!    total energy              =     -90.62090356 Ry
     Harris-Foulkes estimate   =     -90.62090377 Ry
     estimated scf accuracy    <       0.00000044 Ry

     The total energy is the sum of the following terms:

     one-electron contribution =     -34.89233082 Ry
     hartree contribution      =      32.99486334 Ry
     xc contribution           =     -27.70200231 Ry
     ewald contribution        =     -61.02148336 Ry
     smearing contrib. (-TS)   =       0.00004959 Ry

     convergence has been achieved in   8 iterations

     Forces acting on atoms (cartesian axes, Ry/au):

     atom    1 type  1   force =     0.00976159    0.00585594   -0.00680489
     atom    2 type  1   force =     0.02145412   -0.00828197    0.00116159
     atom    3 type  1   force =     0.00330514    0.02463305   -0.02932155
     atom    4 type  1   force =     0.02513512    0.01397481    0.02753748
     atom    5 type  1   force =    -0.01597209   -0.03046334   -0.00978937
     atom    6 type  1   force =    -0.01060376   -0.01551451    0.01388807
     atom    7 type  1   force =    -0.01898842   -0.00137466    0.00286283
     atom    8 type  1   force =    -0.01409171    0.01117068    0.00046583

     Total force =     0.079298     Total SCF correction =     0.000970


     Computing stress (Cartesian axis) and pressure

          total   stress  (Ry/bohr**3)                   (kbar)     P=       17.63
   0.00028797  -0.00010972   0.00007350           42.36      -16.14       10.81
  -0.00010972  -0.00000365  -0.00009837          -16.14       -0.54      -14.47
   0.00007350  -0.00009837   0.00007519           10.81      -14.47       11.06


     number of scf cycles    =  37
     number of bfgs steps    =  36

     enthalpy old            =     -90.6092061956 Ry
     enthalpy new            =     -90.6208705708 Ry

     CASE: enthalpy_new < enthalpy_old

     new trust radius        =       0.0898781933 bohr
     new conv_thr            =       0.0000003046 Ry

     new unit-cell volume =    488.41575 a.u.^3 (    72.37575 Ang^3 )
     density =      2.20256 g/cm^3

CELL_PARAMETERS (bohr)
  13.413242598   1.267102449   1.051108839
   1.500978245   7.915599265  -0.026707937
   0.416566265   0.019946250   4.717060363

ATOMIC_POSITIONS (crystal)
C             0.8181958720        0.8869894420        0.5657018678
C             0.7108431105        1.0109078285        0.1136948186
C             1.0083889711        0.7210900850        0.4844222693
C             0.2840866479        0.1920532857        0.7869536981
C             0.3330597658        0.3562252082        0.2668850647
C             0.2165095006        0.7232440439        0.3326693711
C             0.2556664505        0.8909755932        0.8096330282
C             0.5502186814        0.2564865136        0.1720788821



     Writing output data file ./pp.save/
     NEW-OLD atomic charge density approx. for the potential
     extrapolated charge   32.20971, renormalised to   32.00000

     total cpu time spent up to now is     2577.8 secs

     Self-consistent Calculation

     iteration #  1     ecut=    40.00 Ry     beta= 0.50
     Davidson diagonalization with overlap
     ethr =  1.00E-06,  avg # of iterations =  8.2

     total cpu time spent up to now is     2610.8 secs

     total energy              =     -90.62299139 Ry
     Harris-Foulkes estimate   =     -90.42707642 Ry
     estimated scf accuracy    <       0.00652276 Ry

     iteration #  2     ecut=    40.00 Ry     beta= 0.50
     Davidson diagonalization with overlap
     ethr =  2.04E-05,  avg # of iterations =  4.2

     total cpu time spent up to now is     2628.4 secs

     total energy              =     -90.62390513 Ry
     Harris-Foulkes estimate   =     -90.63087084 Ry
     estimated scf accuracy    <       0.02691307 Ry

     iteration #  3     ecut=    40.00 Ry     beta= 0.50
     Davidson diagonalization with overlap
     ethr =  2.04E-05,  avg # of iterations =  3.1

     total cpu time spent up to now is     2642.1 secs

     total energy              =     -90.62649312 Ry
     Harris-Foulkes estimate   =     -90.62786896 Ry
     estimated scf accuracy    <       0.00588428 Ry

     iteration #  4     ecut=    40.00 Ry     beta= 0.50
     Davidson diagonalization with overlap
     ethr =  1.84E-05,  avg # of iterations =  1.0

     total cpu time spent up to now is     2650.2 secs

     total energy              =     -90.62701456 Ry
     Harris-Foulkes estimate   =     -90.62716021 Ry
     estimated scf accuracy    <       0.00044548 Ry

     iteration #  5     ecut=    40.00 Ry     beta= 0.50
     Davidson diagonalization with overlap
     ethr =  1.39E-06,  avg # of iterations =  3.9

     total cpu time spent up to now is     2665.6 secs

     total energy              =     -90.62706497 Ry
     Harris-Foulkes estimate   =     -90.62708789 Ry
     estimated scf accuracy    <       0.00006445 Ry

     iteration #  6     ecut=    40.00 Ry     beta= 0.50
     Davidson diagonalization with overlap
     ethr =  2.01E-07,  avg # of iterations =  2.3

     total cpu time spent up to now is     2677.7 secs

     total energy              =     -90.62707988 Ry
     Harris-Foulkes estimate   =     -90.62708284 Ry
     estimated scf accuracy    <       0.00001083 Ry

     iteration #  7     ecut=    40.00 Ry     beta= 0.50
     Davidson diagonalization with overlap
     ethr =  3.38E-08,  avg # of iterations =  2.0

     total cpu time spent up to now is     2689.1 secs

     total energy              =     -90.62708173 Ry
     Harris-Foulkes estimate   =     -90.62708164 Ry
     estimated scf accuracy    <       0.00000082 Ry

     iteration #  8     ecut=    40.00 Ry     beta= 0.50
     Davidson diagonalization with overlap
     ethr =  2.55E-09,  avg # of iterations =  2.2

     total cpu time spent up to now is     2701.4 secs

     End of self-consistent calculation

          k = 0.0000 0.0000 0.0000 (  2473 PWs)   bands (ev):

   -13.4715 -11.2141  -9.9329  -7.0967  -6.7661  -3.4758  -3.3947   0.1399
     0.8457   0.8634   1.9106   2.2879   3.3325   4.2452   5.3113   7.2026
     8.7004   9.4299  11.0859  11.8693

          k =-0.0570 0.0132 0.7116 (  2445 PWs)   bands (ev):

   -12.3747 -10.2636  -8.8612  -6.6031  -6.0064  -3.3273  -2.7990  -2.2542
    -1.3015   0.1417   0.5479   1.0773   1.9534   3.6886   4.7191   6.4812
     7.2481   8.4593   9.5209  12.4014

          k = 0.1140-0.0264-1.4231 (  2450 PWs)   bands (ev):

    -9.7816  -8.5954  -8.0920  -7.3454  -5.7219  -4.2621  -3.1719  -3.0586
    -2.6070  -1.8066  -0.9864   0.2644   2.7120   4.2437   4.5335   4.8630
     6.0371   8.9803   9.1551   9.8852

          k = 0.0813-0.8576-0.0036 (  2472 PWs)   bands (ev):

   -12.3722 -12.0353 -10.9364  -7.5759  -6.3432  -2.4179  -1.2882  -0.7514
     0.0589   0.9772   1.7304   2.0627   2.5606   3.9736   4.1692   8.1620
     8.6266   9.5283  11.2300  12.7976

          k = 0.0243-0.8444 0.7080 (  2450 PWs)   bands (ev):

   -11.3460 -10.9439  -9.9008  -7.0051  -5.4841  -2.6064  -2.1652  -1.6839
    -1.1734  -0.9403   0.1901   0.7896   1.9224   4.1645   4.5961   5.7565
     7.5568   8.7147   9.7871  12.0655

          k = 0.1953-0.8840-1.4267 (  2468 PWs)   bands (ev):

    -9.2594  -8.2861  -7.8255  -7.2338  -6.6684  -6.2877  -3.7806  -3.2702
    -1.9002  -0.9279   0.2785   1.1133   3.2662   3.8883   4.3100   4.4511
     5.4137   9.2562   9.7679  10.2000

          k =-0.5096 0.0968 0.0446 (  2466 PWs)   bands (ev):

   -13.4013 -11.6642  -8.8871  -7.9500  -6.6374  -4.5939  -1.5015  -0.5765
     0.7819   1.1215   2.0604   2.5726   2.9193   4.0882   4.8394   6.7197
     9.0105  10.5062  11.2154  11.8373

          k =-0.5666 0.1100 0.7562 (  2460 PWs)   bands (ev):

   -12.3214 -10.5945  -8.1050  -7.0842  -6.0666  -3.8419  -2.6909  -1.5281
    -1.0540  -0.3401   0.5253   0.9465   2.2895   3.5332   4.8289   6.3726
     6.8692   8.0415  10.7931  11.9248

          k =-0.3956 0.0704-1.3785 (  2452 PWs)   bands (ev):

    -9.7790  -8.5620  -8.1127  -7.4220  -5.6596  -4.1139  -3.2531  -3.0753
    -2.6190  -1.8664  -1.0826   0.3714   2.6644   4.2695   4.6107   4.8952
     5.9776   9.0018   9.4926   9.5439

          k =-0.4283-0.7608 0.0410 (  2454 PWs)   bands (ev):

   -12.5546 -11.7212 -10.9629  -8.3497  -4.6050  -3.7238  -1.5598  -0.4872
     0.2200   0.5739   1.7379   2.2347   2.3405   3.8921   5.7600   7.0934
     9.0490   9.9113  10.5568  12.3430

          k =-0.4853-0.7476 0.7526 (  2452 PWs)   bands (ev):

   -11.4893 -10.6829  -9.9366  -7.5255  -4.4458  -3.0933  -2.3257  -2.0045
    -1.1365  -0.5143   0.1327   0.7864   1.5277   4.0743   5.2525   6.2458
     7.0669   8.1266  10.3356  12.1134

          k =-0.3143-0.7872-1.3821 (  2456 PWs)   bands (ev):

    -9.2651  -8.3064  -7.7933  -7.2144  -6.6280  -6.3334  -3.8472  -3.3952
    -1.6949  -0.7288   0.0755   1.0908   3.2981   3.8617   4.3101   4.5015
     5.2757   9.2133   9.7433  10.3365

     the Fermi energy is     6.6173 ev

!    total energy              =     -90.62708186 Ry
     Harris-Foulkes estimate   =     -90.62708192 Ry
     estimated scf accuracy    <       0.00000012 Ry

     The total energy is the sum of the following terms:

     one-electron contribution =     -35.89101504 Ry
     hartree contribution      =      33.40868608 Ry
     xc contribution           =     -27.70238309 Ry
     ewald contribution        =     -60.44292332 Ry
     smearing contrib. (-TS)   =       0.00055351 Ry

     convergence has been achieved in   8 iterations

     Forces acting on atoms (cartesian axes, Ry/au):

     atom    1 type  1   force =     0.01507962    0.00009060   -0.00689381
     atom    2 type  1   force =     0.02342482   -0.00962624   -0.00387556
     atom    3 type  1   force =    -0.01825933    0.03007022   -0.01545047
     atom    4 type  1   force =     0.00911279   -0.01201009    0.02204349
     atom    5 type  1   force =     0.00211246   -0.03870971   -0.00414362
     atom    6 type  1   force =     0.01345294   -0.00364474    0.00477250
     atom    7 type  1   force =    -0.01366797    0.01728977    0.00336970
     atom    8 type  1   force =    -0.03125533    0.01654019    0.00017777

     Total force =     0.081275     Total SCF correction =     0.000527


     Computing stress (Cartesian axis) and pressure

          total   stress  (Ry/bohr**3)                   (kbar)     P=       14.73
   0.00035473  -0.00015323  -0.00003091           52.18      -22.54       -4.55
  -0.00015323  -0.00005600  -0.00008783          -22.54       -8.24      -12.92
  -0.00003091  -0.00008783   0.00000173           -4.55      -12.92        0.25


     number of scf cycles    =  38
     number of bfgs steps    =  37

     enthalpy old            =     -90.6208705708 Ry
     enthalpy new            =     -90.6270486604 Ry

     CASE: enthalpy_new < enthalpy_old

     new trust radius        =       0.1981075131 bohr
     new conv_thr            =       0.0000003871 Ry

     new unit-cell volume =    500.93561 a.u.^3 (    74.23100 Ang^3 )
     density =      2.14751 g/cm^3

CELL_PARAMETERS (bohr)
  13.987922540   1.497208408   1.242562245
   1.683382194   7.816009465  -0.084546470
   0.478988751   0.001300551   4.734078208

ATOMIC_POSITIONS (crystal)
C             0.8218006062        0.8872124363        0.5602038985
C             0.7117099304        1.0065920188        0.1184486625
C             1.0098838696        0.7337568956        0.4484495162
C             0.2886093872        0.1918228204        0.7962073831
C             0.3329688905        0.3543283289        0.2701806131
C             0.2134634654        0.7274676396        0.3388684698
C             0.2521897793        0.8952097982        0.8141133190
C             0.5463430714        0.2415820624        0.1855671377



     Writing output data file ./pp.save/
     NEW-OLD atomic charge density approx. for the potential
     extrapolated charge   32.79977, renormalised to   32.00000

     total cpu time spent up to now is     2701.9 secs

     Self-consistent Calculation

     iteration #  1     ecut=    40.00 Ry     beta= 0.50
     Davidson diagonalization with overlap
     c_bands:  1 eigenvalues not converged
