
     Program PWSCF v.6.5 starts on  8Jul2022 at 10:10:43 

     This program is part of the open-source Quantum ESPRESSO suite
     for quantum simulation of materials; please cite
         "P. Giannozzi et al., J. Phys.:Condens. Matter 21 395502 (2009);
         "P. Giannozzi et al., J. Phys.:Condens. Matter 29 465901 (2017);
          URL http://www.quantum-espresso.org", 
     in publications or presentations arising from this work. More details at
     http://www.quantum-espresso.org/quote

     Parallel version (MPI), running on    96 processors

     MPI processes distributed on     2 nodes
     R & G space division:  proc/nbgrp/npool/nimage =      96
     Waiting for input...
     Reading input from standard input
     Message from routine read_cards :
     DEPRECATED: no units specified in CELL_PARAMETERS card

     Current dimensions of program PWSCF are:
     Max number of different atomic species (ntypx) = 10
     Max number of k-points (npk) =  40000
     Max angular momentum in pseudopotentials (lmaxx) =  3

     Subspace diagonalization in iterative solution of the eigenvalue problem:
     one sub-group per band group will be used
     scalapack distributed-memory algorithm (size of sub-group:  9*  9 procs)

 
     Parallelization info
     --------------------
     sticks:   dense  smooth     PW     G-vecs:    dense   smooth      PW
     Min          14      14      4                  184      184      30
     Max          15      15      5                  186      186      33
     Sum        1411    1411    427                17729    17729    3025
 


     bravais-lattice index     =            0
     lattice parameter (alat)  =      11.4835  a.u.
     unit-cell volume          =     518.6484 (a.u.)^3
     number of atoms/cell      =            8
     number of atomic types    =            1
     number of electrons       =        32.00
     number of Kohn-Sham states=           20
     kinetic-energy cutoff     =      40.0000  Ry
     charge density cutoff     =     160.0000  Ry
     convergence threshold     =      1.0E-08
     mixing beta               =       0.5000
     number of iterations used =            8  plain     mixing
     Exchange-correlation=  SLA  PW   PBE  PBE
                           (   1   4   3   4   0   0   0)
     nstep                     =          250


     celldm(1)=  11.483534  celldm(2)=   0.000000  celldm(3)=   0.000000
     celldm(4)=   0.000000  celldm(5)=   0.000000  celldm(6)=   0.000000

     crystal axes: (cart. coord. in units of alat)
               a(1) = (   0.997167  -0.075221   0.000296 )  
               a(2) = (  -0.028449   0.842276   0.000218 )  
               a(3) = (   0.000113  -0.000104   0.408820 )  

     reciprocal axes: (cart. coord. in units 2 pi/alat)
               b(1) = (  1.005403  0.033959 -0.000270 )  
               b(2) = (  0.089789  1.190293  0.000279 )  
               b(3) = ( -0.000776 -0.000658  2.446064 )  


     PseudoPot. # 1 for C  read from file:
     ./C.pbe-van_bm.upf
     MD5 check sum: 1a69bf6b8db32088f5b2163dbdb77a27
     Pseudo is Ultrasoft, Zval =  4.0
     Generated by new atomic code, or converted to UPF format
     Using radial grid of  721 points,  4 beta functions with: 
                l(1) =   0
                l(2) =   0
                l(3) =   1
                l(4) =   1
     Q(r) pseudized with  8 coefficients,  rinner =    0.800   0.800   0.800


     atomic species   valence    mass     pseudopotential
        C              4.00    12.00000     C ( 1.00)

     No symmetry found



   Cartesian axes

     site n.     atom                  positions (alat units)
         1           C   tau(   1) = (   0.7370231   0.6062924   0.1504364  )
         2           C   tau(   2) = (   0.6296995   0.5205617   0.3548544  )
         3           C   tau(   3) = (   0.9482927   0.4432706   0.1503283  )
         4           C   tau(   4) = (   0.8089892   0.0124664   0.1502679  )
         5           C   tau(   5) = (   0.5977159   0.1754801   0.1503630  )
         6           C   tau(   6) = (   0.9740061   0.3225046   0.3547010  )
         7           C   tau(   7) = (   0.9164317   0.0980729   0.3546709  )
         8           C   tau(   8) = (   0.5721162   0.2961584   0.3548092  )

     number of k points=    12  Marzari-Vanderbilt smearing, width (Ry)=  0.0200
                       cart. coord. in units 2pi/alat
        k(    1) = (   0.0000000   0.0000000   0.0000000), wk =   0.1000000
        k(    2) = (  -0.0001552  -0.0001317   0.4892127), wk =   0.2000000
        k(    3) = (  -0.0003104  -0.0002634   0.9784254), wk =   0.2000000
        k(    4) = (  -0.0448945  -0.5951463  -0.0001397), wk =   0.1000000
        k(    5) = (  -0.0450497  -0.5952780   0.4890730), wk =   0.2000000
        k(    6) = (  -0.0452049  -0.5954097   0.9782857), wk =   0.2000000
        k(    7) = (  -0.5027015  -0.0169797   0.0001349), wk =   0.1000000
        k(    8) = (  -0.5028567  -0.0171114   0.4893476), wk =   0.2000000
        k(    9) = (  -0.5030119  -0.0172431   0.9785603), wk =   0.2000000
        k(   10) = (  -0.5475960  -0.6121261  -0.0000048), wk =   0.1000000
        k(   11) = (  -0.5477512  -0.6122577   0.4892079), wk =   0.2000000
        k(   12) = (  -0.5479064  -0.6123894   0.9784206), wk =   0.2000000

     Dense  grid:    17729 G-vectors     FFT dimensions: (  48,  40,  20)

     Estimated max dynamical RAM per process >       1.31 MB

     Estimated total dynamical RAM >     125.65 MB

     Initial potential from superposition of free atoms

     starting charge   31.99968, renormalised to   32.00000
     Starting wfcs are   32 randomized atomic wfcs

     total cpu time spent up to now is        0.7 secs

     Self-consistent Calculation

     iteration #  1     ecut=    40.00 Ry     beta= 0.50
     Davidson diagonalization with overlap
     ethr =  1.00E-02,  avg # of iterations =  2.2

     total cpu time spent up to now is        1.4 secs

     total energy              =     -90.57793352 Ry
     Harris-Foulkes estimate   =     -90.87585956 Ry
     estimated scf accuracy    <       0.62590442 Ry

     iteration #  2     ecut=    40.00 Ry     beta= 0.50
     Davidson diagonalization with overlap
     ethr =  1.96E-03,  avg # of iterations =  2.2

     total cpu time spent up to now is        2.0 secs

     total energy              =     -90.62785451 Ry
     Harris-Foulkes estimate   =     -90.65536384 Ry
     estimated scf accuracy    <       0.06861139 Ry

     iteration #  3     ecut=    40.00 Ry     beta= 0.50
     Davidson diagonalization with overlap
     ethr =  2.14E-04,  avg # of iterations =  3.2

     total cpu time spent up to now is        2.6 secs

     total energy              =     -90.63387564 Ry
     Harris-Foulkes estimate   =     -90.63726839 Ry
     estimated scf accuracy    <       0.00965775 Ry

     iteration #  4     ecut=    40.00 Ry     beta= 0.50
     Davidson diagonalization with overlap
     ethr =  3.02E-05,  avg # of iterations =  3.9

     total cpu time spent up to now is        3.5 secs

     total energy              =     -90.63510119 Ry
     Harris-Foulkes estimate   =     -90.63631321 Ry
     estimated scf accuracy    <       0.00362134 Ry

     iteration #  5     ecut=    40.00 Ry     beta= 0.50
     Davidson diagonalization with overlap
     ethr =  1.13E-05,  avg # of iterations =  4.0

     total cpu time spent up to now is        4.2 secs

     total energy              =     -90.63513979 Ry
     Harris-Foulkes estimate   =     -90.63640448 Ry
     estimated scf accuracy    <       0.00790988 Ry

     iteration #  6     ecut=    40.00 Ry     beta= 0.50
     Davidson diagonalization with overlap
     ethr =  1.13E-05,  avg # of iterations =  1.0

     total cpu time spent up to now is        4.6 secs

     total energy              =     -90.63584541 Ry
     Harris-Foulkes estimate   =     -90.63598227 Ry
     estimated scf accuracy    <       0.00098908 Ry

     iteration #  7     ecut=    40.00 Ry     beta= 0.50
     Davidson diagonalization with overlap
     ethr =  3.09E-06,  avg # of iterations =  1.0

     total cpu time spent up to now is        5.0 secs

     total energy              =     -90.63592413 Ry
     Harris-Foulkes estimate   =     -90.63592529 Ry
     estimated scf accuracy    <       0.00000931 Ry

     iteration #  8     ecut=    40.00 Ry     beta= 0.50
     Davidson diagonalization with overlap
     ethr =  2.91E-08,  avg # of iterations =  3.0

     total cpu time spent up to now is        5.8 secs

     total energy              =     -90.63592813 Ry
     Harris-Foulkes estimate   =     -90.63592874 Ry
     estimated scf accuracy    <       0.00000224 Ry

     iteration #  9     ecut=    40.00 Ry     beta= 0.50
     Davidson diagonalization with overlap
     ethr =  7.00E-09,  avg # of iterations =  2.0

     total cpu time spent up to now is        6.3 secs

     total energy              =     -90.63592842 Ry
     Harris-Foulkes estimate   =     -90.63592866 Ry
     estimated scf accuracy    <       0.00000096 Ry

     iteration # 10     ecut=    40.00 Ry     beta= 0.50
     Davidson diagonalization with overlap
     ethr =  3.00E-09,  avg # of iterations =  2.0

     total cpu time spent up to now is        6.8 secs

     total energy              =     -90.63592861 Ry
     Harris-Foulkes estimate   =     -90.63592862 Ry
     estimated scf accuracy    <       0.00000018 Ry

     iteration # 11     ecut=    40.00 Ry     beta= 0.50
     Davidson diagonalization with overlap
     ethr =  5.67E-10,  avg # of iterations =  1.4

     total cpu time spent up to now is        7.3 secs

     total energy              =     -90.63592864 Ry
     Harris-Foulkes estimate   =     -90.63592863 Ry
     estimated scf accuracy    <       0.00000001 Ry

     iteration # 12     ecut=    40.00 Ry     beta= 0.50
     Davidson diagonalization with overlap
     ethr =  3.92E-11,  avg # of iterations =  3.0

     total cpu time spent up to now is        8.0 secs

     End of self-consistent calculation

          k = 0.0000 0.0000 0.0000 (  2223 PWs)   bands (ev):

   -14.7013 -11.2977 -10.7216  -9.9004  -5.7223  -2.9506  -2.9464  -1.2362
    -0.2801   1.3478   1.5864   2.5831   3.0161   3.0607   3.4370   5.2559
     6.6825   8.1338  10.7672  11.4655

          k =-0.0002-0.0001 0.4892 (  2215 PWs)   bands (ev):

   -13.9618 -10.6120 -10.0456  -9.2406  -5.3853  -3.0033  -2.5287  -2.2226
    -1.5736  -0.5991   0.1599   0.3468   1.6549   2.9512   3.6395   5.4369
     7.2423   7.9047  10.2030  12.1779

          k =-0.0003-0.0003 0.9784 (  2211 PWs)   bands (ev):

   -11.7820  -8.6405  -8.5192  -8.0628  -6.8766  -5.1394  -4.7072  -3.8166
    -3.0152  -0.7666  -0.5640   0.0457   0.2701   2.4201   4.7735   5.7130
     5.7879   7.9963   8.5764  13.0784

          k =-0.0449-0.5951-0.0001 (  2218 PWs)   bands (ev):

   -14.0827 -13.0851 -10.8538  -7.6235  -5.3114  -5.2796  -1.7029  -0.4881
     0.2148   0.6604   1.0854   1.5114   1.6496   3.2370   4.0724   5.5848
     7.0853   8.3063  11.5912  11.9807

          k =-0.0450-0.5953 0.4891 (  2216 PWs)   bands (ev):

   -13.3458 -12.3683 -10.1943  -6.9926  -4.9557  -4.8218  -2.5930  -1.9482
    -0.9750  -0.8899   0.3663   0.7437   1.4363   1.7624   3.8282   5.3036
     7.0343   8.3683  10.9063  12.8845

          k =-0.0452-0.5954 0.9783 (  2221 PWs)   bands (ev):

   -11.1772 -10.2906  -8.3473  -7.6686  -6.5528  -5.1214  -4.9583  -2.6123
    -2.4521  -2.0330  -0.5749  -0.4202   1.4970   1.7823   4.9557   5.5389
     5.5467   8.2320   8.2415  11.8395

          k =-0.5027-0.0170 0.0001 (  2210 PWs)   bands (ev):

   -14.6915 -11.3224 -10.7439  -9.8858  -5.7497  -2.9700  -2.7048  -1.1654
    -0.2773   1.4568   1.5808   2.2478   2.5835   3.0625   3.5336   5.3451
     6.6124   8.3274  10.1708  12.0312

          k =-0.5029-0.0171 0.4893 (  2208 PWs)   bands (ev):

   -13.9522 -10.6367 -10.0651  -9.2264  -5.4057  -3.0036  -2.5500  -2.0051
    -1.5478  -0.6082   0.1787   0.3754   1.7144   2.9267   3.0731   5.5419
     7.1055   8.2005   9.7750  13.0098

          k =-0.5030-0.0172 0.9786 (  2218 PWs)   bands (ev):

   -11.7733  -8.6661  -8.5102  -8.0740  -6.8678  -5.1593  -4.7118  -3.8095
    -3.0309  -0.7784  -0.5160   0.0637   0.3457   2.6333   4.4162   5.6633
     5.9248   7.7321   8.6528  12.7364

          k =-0.5476-0.6121-0.0000 (  2218 PWs)   bands (ev):

   -14.0697 -13.0837 -10.9012  -7.6356  -5.2694  -5.2639  -1.5408  -0.4542
     0.2182   0.7440   1.0846   1.6450   1.6461   2.5212   4.0723   5.9228
     6.5023   8.5065  11.2567  11.4396

          k =-0.5478-0.6123 0.4892 (  2215 PWs)   bands (ev):

   -13.3331 -12.3671 -10.2389  -7.0034  -4.9229  -4.8119  -2.5625  -1.9516
    -0.9036  -0.8602   0.4129   0.7812   1.5228   1.8315   3.1652   5.6027
     6.6117   8.5862  10.6360  12.4199

          k =-0.5479-0.6124 0.9784 (  2215 PWs)   bands (ev):

   -11.1653 -10.2896  -8.3830  -7.6594  -6.5532  -5.1281  -4.9811  -2.5939
    -2.4475  -2.0299  -0.5655  -0.4112   1.4995   2.0367   4.6068   5.5504
     5.6659   8.0707   8.2691  11.8813

     the Fermi energy is     5.7360 ev

!    total energy              =     -90.63592864 Ry
     Harris-Foulkes estimate   =     -90.63592864 Ry
     estimated scf accuracy    <          2.1E-09 Ry

     The total energy is the sum of the following terms:

     one-electron contribution =     -80.99143326 Ry
     hartree contribution      =      55.26049008 Ry
     xc contribution           =     -27.80412517 Ry
     ewald contribution        =     -37.09927182 Ry
     smearing contrib. (-TS)   =      -0.00158848 Ry

     convergence has been achieved in  12 iterations

     Forces acting on atoms (cartesian axes, Ry/au):

     atom    1 type  1   force =     0.00695681   -0.02300846   -0.00001210
     atom    2 type  1   force =    -0.00415461   -0.00496403    0.00000388
     atom    3 type  1   force =     0.01232943    0.00303547    0.00001275
     atom    4 type  1   force =    -0.00696388    0.02294645    0.00001592
     atom    5 type  1   force =    -0.01232980   -0.00295668   -0.00001719
     atom    6 type  1   force =     0.01366607    0.00621895   -0.00000183
     atom    7 type  1   force =     0.00419364    0.00518296   -0.00002245
     atom    8 type  1   force =    -0.01369767   -0.00645465    0.00002102

     Total force =     0.044899     Total SCF correction =     0.000087


     Computing stress (Cartesian axis) and pressure

          total   stress  (Ry/bohr**3)                   (kbar)     P=        2.50
   0.00019479   0.00013468   0.00000005           28.65       19.81        0.01
   0.00013468  -0.00023696   0.00000002           19.81      -34.86        0.00
   0.00000005   0.00000002   0.00009325            0.01        0.00       13.72


     BFGS Geometry Optimization

     number of scf cycles    =   1
     number of bfgs steps    =   0

     enthalpy new            =     -90.6358933855 Ry

     new trust radius        =       0.0310429293 bohr
     new conv_thr            =       0.0000000100 Ry

     new unit-cell volume =    519.28587 a.u.^3 (    76.95023 Ang^3 )
     density =      2.07162 g/cm^3

CELL_PARAMETERS (bohr)
  11.503834437  -0.820124761   0.003421788
  -0.295722759   9.613885287   0.002511185
   0.001308185  -0.001185711   4.705636510

ATOMIC_POSITIONS (crystal)
C             0.7620950399        0.7855535186        0.3670042712
C             0.6503055772        0.6757129829        0.8671663926
C             0.9695174388        0.6132210361        0.3666867083
C             0.8132011584        0.0898429986        0.3669315463
C             0.6057757618        0.2621801280        0.3672153410
C             0.9913398787        0.4721804610        0.8666513300
C             0.9250004882        0.1996900140        0.8667666377
C             0.5839506571        0.4032078607        0.8672527730



     Writing output data file ./pp.save/
     NEW-OLD atomic charge density approx. for the potential
     extrapolated charge   32.03928, renormalised to   32.00000

     total cpu time spent up to now is        8.3 secs

     Self-consistent Calculation

     iteration #  1     ecut=    40.00 Ry     beta= 0.50
     Davidson diagonalization with overlap
     ethr =  1.00E-06,  avg # of iterations =  8.5

     total cpu time spent up to now is       10.0 secs

     total energy              =     -90.63832947 Ry
     Harris-Foulkes estimate   =     -90.54773490 Ry
     estimated scf accuracy    <       0.00112825 Ry

     iteration #  2     ecut=    40.00 Ry     beta= 0.50
     Davidson diagonalization with overlap
     ethr =  3.53E-06,  avg # of iterations =  4.1

     total cpu time spent up to now is       10.9 secs

     total energy              =     -90.63876014 Ry
     Harris-Foulkes estimate   =     -90.63925124 Ry
     estimated scf accuracy    <       0.00134796 Ry

     iteration #  3     ecut=    40.00 Ry     beta= 0.50
     Davidson diagonalization with overlap
     ethr =  3.53E-06,  avg # of iterations =  2.2

     total cpu time spent up to now is       11.5 secs

     total energy              =     -90.63892224 Ry
     Harris-Foulkes estimate   =     -90.63894856 Ry
     estimated scf accuracy    <       0.00006980 Ry

     iteration #  4     ecut=    40.00 Ry     beta= 0.50
     Davidson diagonalization with overlap
     ethr =  2.18E-07,  avg # of iterations =  2.5

     total cpu time spent up to now is       12.1 secs

     total energy              =     -90.63893103 Ry
     Harris-Foulkes estimate   =     -90.63893577 Ry
     estimated scf accuracy    <       0.00001539 Ry

     iteration #  5     ecut=    40.00 Ry     beta= 0.50
     Davidson diagonalization with overlap
     ethr =  4.81E-08,  avg # of iterations =  2.2

     total cpu time spent up to now is       12.8 secs

     total energy              =     -90.63892805 Ry
     Harris-Foulkes estimate   =     -90.63894238 Ry
     estimated scf accuracy    <       0.00010841 Ry

     iteration #  6     ecut=    40.00 Ry     beta= 0.50
     Davidson diagonalization with overlap
     ethr =  4.81E-08,  avg # of iterations =  1.9

     total cpu time spent up to now is       13.3 secs

     total energy              =     -90.63893430 Ry
     Harris-Foulkes estimate   =     -90.63893545 Ry
     estimated scf accuracy    <       0.00000297 Ry

     iteration #  7     ecut=    40.00 Ry     beta= 0.50
     Davidson diagonalization with overlap
     ethr =  9.27E-09,  avg # of iterations =  2.2

     total cpu time spent up to now is       13.9 secs

     total energy              =     -90.63893486 Ry
     Harris-Foulkes estimate   =     -90.63893488 Ry
     estimated scf accuracy    <       0.00000012 Ry

     iteration #  8     ecut=    40.00 Ry     beta= 0.50
     Davidson diagonalization with overlap
     ethr =  3.60E-10,  avg # of iterations =  2.2

     total cpu time spent up to now is       14.6 secs

     total energy              =     -90.63893487 Ry
     Harris-Foulkes estimate   =     -90.63893489 Ry
     estimated scf accuracy    <       0.00000005 Ry

     iteration #  9     ecut=    40.00 Ry     beta= 0.50
     Davidson diagonalization with overlap
     ethr =  1.63E-10,  avg # of iterations =  2.0

     total cpu time spent up to now is       15.2 secs

     total energy              =     -90.63893488 Ry
     Harris-Foulkes estimate   =     -90.63893489 Ry
     estimated scf accuracy    <       0.00000001 Ry

     iteration # 10     ecut=    40.00 Ry     beta= 0.50
     Davidson diagonalization with overlap
     ethr =  3.54E-11,  avg # of iterations =  2.0

     total cpu time spent up to now is       15.7 secs

     End of self-consistent calculation

          k = 0.0000 0.0000 0.0000 (  2223 PWs)   bands (ev):

   -14.6928 -11.2939 -10.7543  -9.7946  -5.7653  -2.9631  -2.9292  -1.2481
    -0.3313   1.4761   1.5081   2.5628   2.9245   3.0683   3.4640   5.2765
     6.7025   8.0398  10.7409  11.4340

          k =-0.0002-0.0001 0.4881 (  2215 PWs)   bands (ev):

   -13.9568 -10.6153 -10.0789  -9.1401  -5.4362  -3.0306  -2.5384  -2.2318
    -1.5918  -0.6749   0.2116   0.3545   1.7377   2.9782   3.5374   5.4504
     7.2664   7.8338  10.1469  12.1568

          k =-0.0003-0.0003 0.9762 (  2211 PWs)   bands (ev):

   -11.7877  -8.6709  -8.5264  -8.0971  -6.8065  -5.1776  -4.7378  -3.7522
    -3.0420  -0.7589  -0.5262   0.0480   0.1938   2.4487   4.7130   5.6635
     5.8131   7.9079   8.5912  13.1872

          k =-0.0427-0.5985-0.0001 (  2218 PWs)   bands (ev):

   -14.0835 -13.0237 -10.9234  -7.5885  -5.3589  -5.1476  -1.6776  -0.5210
     0.1382   0.6425   1.1059   1.5390   1.6073   3.1539   4.0562   5.6731
     7.0092   8.2652  11.5199  11.9124

          k =-0.0428-0.5987 0.4879 (  2216 PWs)   bands (ev):

   -13.3506 -12.3102 -10.2673  -6.9600  -5.0139  -4.7070  -2.6343  -1.9294
    -0.9757  -0.9643   0.3444   0.7503   1.4680   1.7860   3.7392   5.3584
     6.9780   8.3619  10.8299  12.8858

          k =-0.0430-0.5988 0.9760 (  2221 PWs)   bands (ev):

   -11.1947 -10.2435  -8.4285  -7.7090  -6.5125  -5.0932  -5.0415  -2.6439
    -2.3373  -2.0299  -0.6054  -0.3330   1.4470   1.7843   4.8975   5.4899
     5.5363   8.1524   8.2878  11.9886

          k =-0.5002-0.0154 0.0001 (  2210 PWs)   bands (ev):

   -14.6830 -11.3228 -10.7710  -9.7792  -5.7918  -2.9528  -2.7193  -1.1812
    -0.3285   1.4705   1.6103   2.1702   2.5632   3.0702   3.5646   5.3675
     6.6399   8.2297  10.1324  12.0499

          k =-0.5004-0.0155 0.4882 (  2208 PWs)   bands (ev):

   -13.9474 -10.6440 -10.0931  -9.1251  -5.4558  -3.0308  -2.5591  -2.0145
    -1.5686  -0.6835   0.2278   0.3830   1.7853   2.8367   3.1108   5.5545
     7.1252   8.1409   9.7163  12.9986

          k =-0.5005-0.0157 0.9763 (  2218 PWs)   bands (ev):

   -11.7790  -8.6990  -8.5175  -8.1047  -6.7970  -5.1995  -4.7400  -3.7451
    -3.0568  -0.7707  -0.4781   0.0661   0.2698   2.6573   4.3427   5.6267
     5.9483   7.6445   8.6815  12.8493

          k =-0.5429-0.6139-0.0000 (  2218 PWs)   bands (ev):

   -14.0707 -13.0222 -10.9696  -7.5999  -5.3098  -5.1366  -1.5185  -0.4953
     0.1415   0.7244   1.1049   1.5347   1.7420   2.4616   4.0562   6.0043
     6.4189   8.5020  11.1813  11.3857

          k =-0.5430-0.6141 0.4881 (  2215 PWs)   bands (ev):

   -13.3381 -12.3089 -10.3107  -6.9703  -4.9796  -4.6965  -2.6045  -1.9334
    -0.9892  -0.8517   0.3860   0.7876   1.5408   1.8682   3.0946   5.6500
     6.5530   8.6025  10.5557  12.3993

          k =-0.5432-0.6142 0.9761 (  2215 PWs)   bands (ev):

   -11.1830 -10.2426  -8.4633  -7.6999  -6.5128  -5.0991  -5.0640  -2.6237
    -2.3319  -2.0272  -0.5959  -0.3238   1.4471   2.0343   4.5367   5.5378
     5.6279   7.9904   8.3268  12.0292

     the Fermi energy is     5.7317 ev

!    total energy              =     -90.63893488 Ry
     Harris-Foulkes estimate   =     -90.63893489 Ry
     estimated scf accuracy    <          2.1E-09 Ry

     The total energy is the sum of the following terms:

     one-electron contribution =     -81.21066940 Ry
     hartree contribution      =      55.36183530 Ry
     xc contribution           =     -27.79985606 Ry
     ewald contribution        =     -36.98898104 Ry
     smearing contrib. (-TS)   =      -0.00126369 Ry

     convergence has been achieved in  10 iterations

     Forces acting on atoms (cartesian axes, Ry/au):

     atom    1 type  1   force =     0.00589242   -0.01048438   -0.00000188
     atom    2 type  1   force =     0.00386486    0.00057188    0.00000205
     atom    3 type  1   force =     0.00660843    0.00426834    0.00000385
     atom    4 type  1   force =    -0.00584971    0.01053202   -0.00001074
     atom    5 type  1   force =    -0.00657535   -0.00432829    0.00001173
     atom    6 type  1   force =     0.01528895    0.00694634   -0.00000188
     atom    7 type  1   force =    -0.00395928   -0.00070403    0.00000127
     atom    8 type  1   force =    -0.01527031   -0.00680188   -0.00000440

     Total force =     0.031726     Total SCF correction =     0.000093


     Computing stress (Cartesian axis) and pressure

          total   stress  (Ry/bohr**3)                   (kbar)     P=        0.53
   0.00011997   0.00009747   0.00000005           17.65       14.34        0.01
   0.00009747  -0.00010988  -0.00000008           14.34      -16.16       -0.01
   0.00000005  -0.00000008   0.00000069            0.01       -0.01        0.10


     number of scf cycles    =   2
     number of bfgs steps    =   1

     enthalpy old            =     -90.6358933855 Ry
     enthalpy new            =     -90.6388995834 Ry

     CASE: enthalpy_new < enthalpy_old

     new trust radius        =       0.0343812417 bohr
     new conv_thr            =       0.0000000015 Ry

     new unit-cell volume =    519.57396 a.u.^3 (    76.99292 Ang^3 )
     density =      2.07047 g/cm^3

CELL_PARAMETERS (bohr)
  11.567222131  -0.762017800   0.003453828
  -0.252775137   9.555231139   0.002485870
   0.001321363  -0.001185266   4.709064406

ATOMIC_POSITIONS (crystal)
C             0.7629763556        0.7833185924        0.3670034484
C             0.6506967333        0.6756811263        0.8671670255
C             0.9707287473        0.6140770914        0.3666874179
C             0.8123253896        0.0920837419        0.3669286238
C             0.6045685340        0.2613178093        0.3672192659
C             0.9937327355        0.4736537297        0.8666481082
C             0.9245976378        0.1997075466        0.8667658688
C             0.5815598669        0.4017493623        0.8672552416



     Writing output data file ./pp.save/
     NEW-OLD atomic charge density approx. for the potential
     extrapolated charge   32.01774, renormalised to   32.00000

     total cpu time spent up to now is       15.8 secs

     Self-consistent Calculation

     iteration #  1     ecut=    40.00 Ry     beta= 0.50
     Davidson diagonalization with overlap
     ethr =  1.00E-06,  avg # of iterations =  8.6

     total cpu time spent up to now is       17.8 secs

     total energy              =     -90.64060114 Ry
     Harris-Foulkes estimate   =     -90.59996198 Ry
     estimated scf accuracy    <       0.00124643 Ry

     iteration #  2     ecut=    40.00 Ry     beta= 0.50
     Davidson diagonalization with overlap
     ethr =  3.90E-06,  avg # of iterations =  3.1

     total cpu time spent up to now is       18.7 secs

     total energy              =     -90.64087507 Ry
     Harris-Foulkes estimate   =     -90.64123328 Ry
     estimated scf accuracy    <       0.00091016 Ry

     iteration #  3     ecut=    40.00 Ry     beta= 0.50
     Davidson diagonalization with overlap
     ethr =  2.84E-06,  avg # of iterations =  2.2

     total cpu time spent up to now is       19.3 secs

     total energy              =     -90.64100937 Ry
     Harris-Foulkes estimate   =     -90.64104242 Ry
     estimated scf accuracy    <       0.00008383 Ry

     iteration #  4     ecut=    40.00 Ry     beta= 0.50
     Davidson diagonalization with overlap
     ethr =  2.62E-07,  avg # of iterations =  2.1

     total cpu time spent up to now is       20.1 secs

     total energy              =     -90.64098112 Ry
     Harris-Foulkes estimate   =     -90.64107918 Ry
     estimated scf accuracy    <       0.00063160 Ry

     iteration #  5     ecut=    40.00 Ry     beta= 0.50
     Davidson diagonalization with overlap
     ethr =  2.62E-07,  avg # of iterations =  2.0

     total cpu time spent up to now is       20.7 secs

     total energy              =     -90.64103364 Ry
     Harris-Foulkes estimate   =     -90.64103846 Ry
     estimated scf accuracy    <       0.00002956 Ry

     iteration #  6     ecut=    40.00 Ry     beta= 0.50
     Davidson diagonalization with overlap
     ethr =  9.24E-08,  avg # of iterations =  1.0

     total cpu time spent up to now is       21.2 secs

     total energy              =     -90.64103605 Ry
     Harris-Foulkes estimate   =     -90.64103618 Ry
     estimated scf accuracy    <       0.00000074 Ry

     iteration #  7     ecut=    40.00 Ry     beta= 0.50
     Davidson diagonalization with overlap
     ethr =  2.32E-09,  avg # of iterations =  3.0

     total cpu time spent up to now is       22.8 secs

     total energy              =     -90.64103627 Ry
     Harris-Foulkes estimate   =     -90.64103632 Ry
     estimated scf accuracy    <       0.00000016 Ry

     iteration #  8     ecut=    40.00 Ry     beta= 0.50
     Davidson diagonalization with overlap
     ethr =  5.11E-10,  avg # of iterations =  2.0

     total cpu time spent up to now is       23.7 secs

     total energy              =     -90.64103629 Ry
     Harris-Foulkes estimate   =     -90.64103632 Ry
     estimated scf accuracy    <       0.00000009 Ry

     iteration #  9     ecut=    40.00 Ry     beta= 0.50
     Davidson diagonalization with overlap
     ethr =  2.74E-10,  avg # of iterations =  1.0

     total cpu time spent up to now is       24.3 secs

     total energy              =     -90.64103630 Ry
     Harris-Foulkes estimate   =     -90.64103630 Ry
     estimated scf accuracy    <          5.3E-09 Ry

     iteration # 10     ecut=    40.00 Ry     beta= 0.50
     Davidson diagonalization with overlap
     ethr =  1.67E-11,  avg # of iterations =  2.8

     total cpu time spent up to now is       25.2 secs

     End of self-consistent calculation

          k = 0.0000 0.0000 0.0000 (  2223 PWs)   bands (ev):

   -14.6749 -11.2619 -10.8156  -9.7052  -5.7873  -2.9817  -2.9181  -1.2654
    -0.3489   1.3974   1.6698   2.5453   2.8419   3.0707   3.5156   5.3154
     6.7018   7.9930  10.6628  11.4130

          k =-0.0002-0.0001 0.4877 (  2215 PWs)   bands (ev):

   -13.9402 -10.5879 -10.1385  -9.0531  -5.4538  -3.0421  -2.5392  -2.2446
    -1.5911  -0.7473   0.2631   0.3504   1.8099   3.0440   3.4454   5.4837
     7.2810   7.7870  10.0478  12.1489

          k =-0.0003-0.0003 0.9754 (  2211 PWs)   bands (ev):

   -11.7747  -8.6574  -8.5052  -8.1526  -6.7447  -5.1903  -4.7738  -3.6975
    -3.0428  -0.7574  -0.5026   0.0464   0.1266   2.5131   4.6930   5.6102
     5.8703   7.7839   8.5840  13.2597

          k =-0.0397-0.6020-0.0001 (  2218 PWs)   bands (ev):

   -14.0590 -12.9823 -10.9880  -7.5832  -5.3984  -4.9930  -1.6362  -0.5857
     0.1047   0.5948   1.1423   1.4411   1.7411   3.0968   4.0298   5.8075
     6.9446   8.2035  11.4054  11.8792

          k =-0.0398-0.6021 0.4876 (  2216 PWs)   bands (ev):

   -13.3278 -12.2698 -10.3324  -6.9557  -5.0471  -4.5621  -2.6471  -1.9253
    -1.0301  -0.9414   0.2893   0.7363   1.5108   1.8225   3.6768   5.4521
     6.9456   8.3315  10.7158  12.9050

          k =-0.0400-0.6022 0.9753 (  2221 PWs)   bands (ev):

   -11.1758 -10.2090  -8.4848  -7.7081  -6.4750  -5.1148  -5.0901  -2.6678
    -2.2097  -2.0459  -0.6266  -0.2358   1.3687   1.8350   4.8876   5.4439
     5.5573   8.0364   8.3180  12.1648

          k =-0.4972-0.0132 0.0001 (  2210 PWs)   bands (ev):

   -14.6653 -11.2956 -10.8266  -9.6882  -5.8130  -2.9423  -2.7412  -1.2037
    -0.3460   1.3919   1.7650   2.1004   2.5456   3.0728   3.6239   5.4027
     6.6807   8.1631  10.0519  12.0590

          k =-0.4974-0.0133 0.4879 (  2208 PWs)   bands (ev):

   -13.9309 -10.6211 -10.1473  -9.0366  -5.4729  -3.0419  -2.5600  -2.0293
    -1.5699  -0.7555   0.2767   0.3778   1.8465   2.7545   3.1907   5.5829
     7.1676   8.0878   9.6141  12.9772

          k =-0.4976-0.0134 0.9756 (  2218 PWs)   bands (ev):

   -11.7662  -8.6886  -8.4963  -8.1567  -6.7341  -5.2142  -4.7736  -3.6900
    -3.0568  -0.7697  -0.4539   0.0650   0.2006   2.7227   4.3016   5.5889
     6.0023   7.5171   8.7012  12.9729

          k =-0.5369-0.6151-0.0000 (  2218 PWs)   bands (ev):

   -14.0464 -12.9806 -11.0335  -7.5927  -5.3476  -4.9812  -1.4823  -0.5724
     0.1081   0.6746   1.1413   1.4367   1.8819   2.4255   4.0300   6.1276
     6.3580   8.4810  11.0519  11.3719

          k =-0.5371-0.6152 0.4877 (  2215 PWs)   bands (ev):

   -13.3155 -12.2683 -10.3753  -6.9642  -5.0111  -4.5510  -2.6188  -1.9303
    -1.0433  -0.8331   0.3212   0.7743   1.5603   1.9331   3.0481   5.7313
     6.5242   8.6061  10.4302  12.3940

          k =-0.5372-0.6154 0.9754 (  2215 PWs)   bands (ev):

   -11.1642 -10.2078  -8.5195  -7.6991  -6.4750  -5.1373  -5.0943  -2.6460
    -2.2034  -2.0430  -0.6178  -0.2261   1.3651   2.0834   4.5058   5.5570
     5.5928   7.8701   8.3832  12.2030

     the Fermi energy is     5.7474 ev

!    total energy              =     -90.64103630 Ry
     Harris-Foulkes estimate   =     -90.64103630 Ry
     estimated scf accuracy    <          7.4E-10 Ry

     The total energy is the sum of the following terms:

     one-electron contribution =     -81.34627820 Ry
     hartree contribution      =      55.43016285 Ry
     xc contribution           =     -27.79389026 Ry
     ewald contribution        =     -36.93057056 Ry
     smearing contrib. (-TS)   =      -0.00046013 Ry

     convergence has been achieved in  10 iterations

     Forces acting on atoms (cartesian axes, Ry/au):

     atom    1 type  1   force =     0.00401181   -0.00210464   -0.00000275
     atom    2 type  1   force =     0.00581895   -0.00474777    0.00000173
     atom    3 type  1   force =     0.00225505    0.00315173   -0.00000465
     atom    4 type  1   force =    -0.00405773    0.00204707    0.00000260
     atom    5 type  1   force =    -0.00226546   -0.00311292    0.00000262
     atom    6 type  1   force =     0.00903211   -0.00446805    0.00000169
     atom    7 type  1   force =    -0.00575480    0.00487133   -0.00000681
     atom    8 type  1   force =    -0.00903994    0.00436325    0.00000557

     Total force =     0.019661     Total SCF correction =     0.000054


     Computing stress (Cartesian axis) and pressure

          total   stress  (Ry/bohr**3)                   (kbar)     P=       -2.83
   0.00002787   0.00001003   0.00000002            4.10        1.48        0.00
   0.00001003  -0.00008423  -0.00000009            1.48      -12.39       -0.01
   0.00000002  -0.00000009  -0.00000130            0.00       -0.01       -0.19


     number of scf cycles    =   3
     number of bfgs steps    =   2

     enthalpy old            =     -90.6388995834 Ry
     enthalpy new            =     -90.6410009823 Ry

     CASE: enthalpy_new < enthalpy_old

     new trust radius        =       0.0328915812 bohr
     new conv_thr            =       0.0000000009 Ry

     new unit-cell volume =    518.48185 a.u.^3 (    76.83108 Ang^3 )
     density =      2.07483 g/cm^3

CELL_PARAMETERS (bohr)
  11.611883260  -0.725135393   0.003479959
  -0.227974945   9.490796694   0.002441460
   0.001331568  -0.001195511   4.711727667

ATOMIC_POSITIONS (crystal)
C             0.7639523398        0.7818182198        0.3670017038
C             0.6515867103        0.6748981782        0.8671678685
C             0.9716964384        0.6150168832        0.3666858323
C             0.8113446876        0.0935754664        0.3669289718
C             0.6036012373        0.2603828972        0.3672218455
C             0.9960918595        0.4737391975        0.8666466102
C             0.9237133719        0.2005091591        0.8667626605
C             0.5791993552        0.4016489986        0.8672595075



     Writing output data file ./pp.save/
     NEW-OLD atomic charge density approx. for the potential
     extrapolated charge   31.93260, renormalised to   32.00000

     total cpu time spent up to now is       25.3 secs

     Self-consistent Calculation

     iteration #  1     ecut=    40.00 Ry     beta= 0.50
     Davidson diagonalization with overlap
     ethr =  1.00E-06,  avg # of iterations =  6.8

     total cpu time spent up to now is       27.3 secs

     total energy              =     -90.64118008 Ry
     Harris-Foulkes estimate   =     -90.79941016 Ry
     estimated scf accuracy    <       0.00066498 Ry

     iteration #  2     ecut=    40.00 Ry     beta= 0.50
     Davidson diagonalization with overlap
     ethr =  2.08E-06,  avg # of iterations =  3.8

     total cpu time spent up to now is       28.6 secs

     total energy              =     -90.64164058 Ry
     Harris-Foulkes estimate   =     -90.64191342 Ry
     estimated scf accuracy    <       0.00077291 Ry

     iteration #  3     ecut=    40.00 Ry     beta= 0.50
     Davidson diagonalization with overlap
     ethr =  2.08E-06,  avg # of iterations =  2.2

     total cpu time spent up to now is       29.4 secs

     total energy              =     -90.64164534 Ry
     Harris-Foulkes estimate   =     -90.64170442 Ry
     estimated scf accuracy    <       0.00012423 Ry

     iteration #  4     ecut=    40.00 Ry     beta= 0.50
     Davidson diagonalization with overlap
     ethr =  3.88E-07,  avg # of iterations =  2.1

     total cpu time spent up to now is       30.3 secs

     total energy              =     -90.64166043 Ry
     Harris-Foulkes estimate   =     -90.64168400 Ry
     estimated scf accuracy    <       0.00012257 Ry

     iteration #  5     ecut=    40.00 Ry     beta= 0.50
     Davidson diagonalization with overlap
     ethr =  3.83E-07,  avg # of iterations =  1.0

     total cpu time spent up to now is       31.0 secs

     total energy              =     -90.64167276 Ry
     Harris-Foulkes estimate   =     -90.64167772 Ry
     estimated scf accuracy    <       0.00003129 Ry

     iteration #  6     ecut=    40.00 Ry     beta= 0.50
     Davidson diagonalization with overlap
     ethr =  9.78E-08,  avg # of iterations =  1.0

     total cpu time spent up to now is       31.6 secs

     total energy              =     -90.64167430 Ry
     Harris-Foulkes estimate   =     -90.64167551 Ry
     estimated scf accuracy    <       0.00000251 Ry

     iteration #  7     ecut=    40.00 Ry     beta= 0.50
     Davidson diagonalization with overlap
     ethr =  7.85E-09,  avg # of iterations =  2.3

     total cpu time spent up to now is       32.6 secs

     total energy              =     -90.64167503 Ry
     Harris-Foulkes estimate   =     -90.64167519 Ry
     estimated scf accuracy    <       0.00000044 Ry

     iteration #  8     ecut=    40.00 Ry     beta= 0.50
     Davidson diagonalization with overlap
     ethr =  1.38E-09,  avg # of iterations =  2.0

     total cpu time spent up to now is       33.5 secs

     total energy              =     -90.64167505 Ry
     Harris-Foulkes estimate   =     -90.64167508 Ry
     estimated scf accuracy    <       0.00000007 Ry

     iteration #  9     ecut=    40.00 Ry     beta= 0.50
     Davidson diagonalization with overlap
     ethr =  2.16E-10,  avg # of iterations =  2.8

     total cpu time spent up to now is       34.7 secs

     total energy              =     -90.64167507 Ry
     Harris-Foulkes estimate   =     -90.64167507 Ry
     estimated scf accuracy    <       0.00000001 Ry

     iteration # 10     ecut=    40.00 Ry     beta= 0.50
     Davidson diagonalization with overlap
     ethr =  4.30E-11,  avg # of iterations =  1.8

     total cpu time spent up to now is       35.6 secs

     total energy              =     -90.64167507 Ry
     Harris-Foulkes estimate   =     -90.64167507 Ry
     estimated scf accuracy    <          6.5E-09 Ry

     iteration # 11     ecut=    40.00 Ry     beta= 0.50
     Davidson diagonalization with overlap
     ethr =  2.03E-11,  avg # of iterations =  2.0

     total cpu time spent up to now is       36.5 secs

     End of self-consistent calculation

          k = 0.0000 0.0000 0.0000 (  2223 PWs)   bands (ev):

   -14.6635 -11.2559 -10.8077  -9.6287  -5.8010  -2.9931  -2.8902  -1.3004
    -0.3379   1.4070   1.8019   2.5717   2.8002   3.1451   3.5502   5.3830
     6.7785   7.9490  10.6501  11.4225

          k =-0.0002-0.0001 0.4874 (  2215 PWs)   bands (ev):

   -13.9297 -10.5859 -10.1285  -8.9789  -5.4685  -3.0278  -2.5314  -2.2548
    -1.6060  -0.7263   0.3290   0.3700   1.8948   3.1028   3.3939   5.5473
     7.3706   7.7476  10.0079  12.1667

          k =-0.0003-0.0003 0.9749 (  2211 PWs)   bands (ev):

   -11.7672  -8.6682  -8.4996  -8.1412  -6.6696  -5.1979  -4.7452  -3.6235
    -3.0495  -0.7338  -0.4808   0.0507   0.0904   2.5599   4.6675   5.6231
     5.9438   7.7169   8.6550  13.3534

          k =-0.0378-0.6059-0.0001 (  2218 PWs)   bands (ev):

   -14.0398 -12.9475 -11.0238  -7.5300  -5.4487  -4.8872  -1.5839  -0.6015
     0.1197   0.5636   1.1744   1.4508   1.8356   3.0637   4.0897   5.9186
     6.9493   8.1585  11.3704  11.8891

          k =-0.0380-0.6060 0.4873 (  2216 PWs)   bands (ev):

   -13.3096 -12.2363 -10.3681  -6.9020  -5.0967  -4.4686  -2.6307  -1.9074
    -1.0242  -0.9002   0.2745   0.7440   1.5673   1.8889   3.6390   5.5431
     6.9713   8.3185  10.6773  12.9068

          k =-0.0381-0.6061 0.9747 (  2221 PWs)   bands (ev):

   -11.1609 -10.1821  -8.5202  -7.7042  -6.4351  -5.1367  -5.0324  -2.6877
    -2.1157  -2.0038  -0.6492  -0.1747   1.3539   1.8795   4.8647   5.4547
     5.6021   7.9982   8.4047  12.3020

          k =-0.4952-0.0119 0.0001 (  2210 PWs)   bands (ev):

   -14.6540 -11.2934 -10.8144  -9.6102  -5.8261  -2.9147  -2.7540  -1.2447
    -0.3351   1.4012   1.8923   2.0629   2.5720   3.1474   3.6635   5.4665
     6.8051   8.1028  10.0316  12.0874

          k =-0.4954-0.0120 0.4876 (  2208 PWs)   bands (ev):

   -13.9205 -10.6223 -10.1337  -8.9611  -5.4872  -3.0272  -2.5519  -2.0406
    -1.5870  -0.7345   0.3425   0.3953   1.9231   2.7055   3.2601   5.6417
     7.2762   8.0586   9.5681  12.9845

          k =-0.4955-0.0122 0.9750 (  2218 PWs)   bands (ev):

   -11.7588  -8.7008  -8.4907  -8.1435  -6.6579  -5.2223  -4.7446  -3.6150
    -3.0634  -0.7464  -0.4303   0.0694   0.1623   2.7719   4.2595   5.6088
     6.0757   7.4443   8.8010  13.0864

          k =-0.5331-0.6178-0.0000 (  2218 PWs)   bands (ev):

   -14.0272 -12.9457 -11.0690  -7.5381  -5.3965  -4.8744  -1.4320  -0.5978
     0.1231   0.6385   1.1734   1.4463   1.9805   2.4044   4.0901   6.2350
     6.3590   8.4876  10.9926  11.3849

          k =-0.5332-0.6179 0.4874 (  2215 PWs)   bands (ev):

   -13.2973 -12.2347 -10.4107  -6.9094  -5.0592  -4.4567  -2.6026  -1.9133
    -1.0375  -0.7948   0.3042   0.7743   1.6179   2.0025   3.0192   5.8165
     6.5501   8.6339  10.3756  12.3848

          k =-0.5334-0.6180 0.9749 (  2215 PWs)   bands (ev):

   -11.1494 -10.1809  -8.5547  -7.6953  -6.4352  -5.1592  -5.0353  -2.6637
    -2.1086  -2.0015  -0.6405  -0.1641   1.3466   2.1290   4.4669   5.6004
     5.6095   7.8254   8.4981  12.3305

     the Fermi energy is     5.7968 ev

!    total energy              =     -90.64167507 Ry
     Harris-Foulkes estimate   =     -90.64167507 Ry
     estimated scf accuracy    <          4.2E-10 Ry

     The total energy is the sum of the following terms:

     one-electron contribution =     -81.48978629 Ry
     hartree contribution      =      55.53219789 Ry
     xc contribution           =     -27.80565754 Ry
     ewald contribution        =     -36.87856096 Ry
     smearing contrib. (-TS)   =       0.00013182 Ry

     convergence has been achieved in  11 iterations

     Forces acting on atoms (cartesian axes, Ry/au):

     atom    1 type  1   force =     0.00154682    0.00155692    0.00000220
     atom    2 type  1   force =     0.00734732    0.00264174   -0.00000086
     atom    3 type  1   force =     0.00314301   -0.00140473    0.00000071
     atom    4 type  1   force =    -0.00151699   -0.00150525   -0.00000684
     atom    5 type  1   force =    -0.00312883    0.00136619    0.00000249
     atom    6 type  1   force =     0.00268615    0.00177689   -0.00000566
     atom    7 type  1   force =    -0.00742863   -0.00279536    0.00000359
     atom    8 type  1   force =    -0.00264885   -0.00163640    0.00000436

     Total force =     0.013301     Total SCF correction =     0.000044


     Computing stress (Cartesian axis) and pressure

          total   stress  (Ry/bohr**3)                   (kbar)     P=        1.53
  -0.00002634  -0.00002339   0.00000004           -3.87       -3.44        0.01
  -0.00002339   0.00006507   0.00000002           -3.44        9.57        0.00
   0.00000004   0.00000002  -0.00000762            0.01        0.00       -1.12


     number of scf cycles    =   4
     number of bfgs steps    =   3

     enthalpy old            =     -90.6410009823 Ry
     enthalpy new            =     -90.6416398264 Ry

     CASE: enthalpy_new < enthalpy_old

     new trust radius        =       0.0078447597 bohr
     new conv_thr            =       0.0000000006 Ry

     new unit-cell volume =    518.81318 a.u.^3 (    76.88018 Ang^3 )
     density =      2.07351 g/cm^3

CELL_PARAMETERS (bohr)
  11.610260016  -0.729510232   0.003490967
  -0.231085631   9.497815901   0.002443797
   0.001336302  -0.001195507   4.712048583

ATOMIC_POSITIONS (crystal)
C             0.7641823491        0.7817671833        0.3670016397
C             0.6522530242        0.6750635934        0.8671672609
C             0.9720763674        0.6149836437        0.3666857645
C             0.8111161541        0.0936293990        0.3669283763
C             0.6032220271        0.2604146539        0.3672221185
C             0.9965139647        0.4738779533        0.8666451349
C             0.9230419383        0.2003344065        0.8667631224
C             0.5787801750        0.4015181669        0.8672615828



     Writing output data file ./pp.save/
     NEW-OLD atomic charge density approx. for the potential
     extrapolated charge   32.02044, renormalised to   32.00000

     total cpu time spent up to now is       36.6 secs

     Self-consistent Calculation

     iteration #  1     ecut=    40.00 Ry     beta= 0.50
     Davidson diagonalization with overlap
     ethr =  1.00E-06,  avg # of iterations =  3.2

     total cpu time spent up to now is       38.1 secs

     total energy              =     -90.64174962 Ry
     Harris-Foulkes estimate   =     -90.59417046 Ry
     estimated scf accuracy    <       0.00010983 Ry

     iteration #  2     ecut=    40.00 Ry     beta= 0.50
     Davidson diagonalization with overlap
     ethr =  3.43E-07,  avg # of iterations =  3.2

     total cpu time spent up to now is       39.5 secs

     total energy              =     -90.64182362 Ry
     Harris-Foulkes estimate   =     -90.64187160 Ry
     estimated scf accuracy    <       0.00013166 Ry

     iteration #  3     ecut=    40.00 Ry     beta= 0.50
     Davidson diagonalization with overlap
     ethr =  3.43E-07,  avg # of iterations =  2.0

     total cpu time spent up to now is       40.5 secs

     total energy              =     -90.64183237 Ry
     Harris-Foulkes estimate   =     -90.64183757 Ry
     estimated scf accuracy    <       0.00001345 Ry

     iteration #  4     ecut=    40.00 Ry     beta= 0.50
     Davidson diagonalization with overlap
     ethr =  4.20E-08,  avg # of iterations =  2.0

     total cpu time spent up to now is       41.6 secs

     total energy              =     -90.64183287 Ry
     Harris-Foulkes estimate   =     -90.64183456 Ry
     estimated scf accuracy    <       0.00000423 Ry

     iteration #  5     ecut=    40.00 Ry     beta= 0.50
     Davidson diagonalization with overlap
     ethr =  1.32E-08,  avg # of iterations =  2.0

     total cpu time spent up to now is       42.6 secs

     total energy              =     -90.64183276 Ry
     Harris-Foulkes estimate   =     -90.64183535 Ry
     estimated scf accuracy    <       0.00001806 Ry

     iteration #  6     ecut=    40.00 Ry     beta= 0.50
     Davidson diagonalization with overlap
     ethr =  1.32E-08,  avg # of iterations =  1.6

     total cpu time spent up to now is       43.6 secs

     total energy              =     -90.64183398 Ry
     Harris-Foulkes estimate   =     -90.64183407 Ry
     estimated scf accuracy    <       0.00000022 Ry

     iteration #  7     ecut=    40.00 Ry     beta= 0.50
     Davidson diagonalization with overlap
     ethr =  6.74E-10,  avg # of iterations =  2.9

     total cpu time spent up to now is       45.0 secs

     total energy              =     -90.64183404 Ry
     Harris-Foulkes estimate   =     -90.64183406 Ry
     estimated scf accuracy    <       0.00000005 Ry

     iteration #  8     ecut=    40.00 Ry     beta= 0.50
     Davidson diagonalization with overlap
     ethr =  1.67E-10,  avg # of iterations =  2.0

     total cpu time spent up to now is       46.1 secs

     total energy              =     -90.64183405 Ry
     Harris-Foulkes estimate   =     -90.64183405 Ry
     estimated scf accuracy    <          5.4E-09 Ry

     iteration #  9     ecut=    40.00 Ry     beta= 0.50
     Davidson diagonalization with overlap
     ethr =  1.69E-11,  avg # of iterations =  2.7

     total cpu time spent up to now is       47.5 secs

     total energy              =     -90.64183405 Ry
     Harris-Foulkes estimate   =     -90.64183405 Ry
     estimated scf accuracy    <          3.2E-09 Ry

     iteration # 10     ecut=    40.00 Ry     beta= 0.50
     Davidson diagonalization with overlap
     ethr =  1.00E-11,  avg # of iterations =  1.5

     total cpu time spent up to now is       48.5 secs

     End of self-consistent calculation

          k = 0.0000 0.0000 0.0000 (  2223 PWs)   bands (ev):

   -14.6608 -11.2477 -10.8208  -9.6397  -5.7888  -2.9988  -2.8838  -1.3042
    -0.3473   1.4046   1.8055   2.5343   2.8048   3.1132   3.5579   5.3750
     6.7613   7.9537  10.6382  11.4231

          k =-0.0002-0.0001 0.4874 (  2215 PWs)   bands (ev):

   -13.9272 -10.5775 -10.1420  -8.9895  -5.4561  -3.0354  -2.5226  -2.2604
    -1.6082  -0.7321   0.3124   0.3399   1.8930   3.1041   3.3983   5.5406
     7.3559   7.7456   9.9912  12.1659

          k =-0.0003-0.0003 0.9748 (  2211 PWs)   bands (ev):

   -11.7651  -8.6580  -8.4960  -8.1555  -6.6843  -5.1956  -4.7624  -3.6383
    -3.0425  -0.7326  -0.4862   0.0431   0.0910   2.5613   4.6771   5.6128
     5.9393   7.6985   8.6409  13.3333

          k =-0.0380-0.6055-0.0001 (  2218 PWs)   bands (ev):

   -14.0334 -12.9576 -11.0189  -7.5433  -5.4424  -4.8864  -1.5870  -0.6101
     0.1148   0.5627   1.1441   1.4445   1.8542   3.0711   4.0502   5.9278
     6.9538   8.1344  11.3466  11.8636

          k =-0.0382-0.6056 0.4873 (  2216 PWs)   bands (ev):

   -13.3033 -12.2467 -10.3631  -6.9161  -5.0879  -4.4650  -2.6342  -1.9295
    -1.0259  -0.9037   0.2573   0.7436   1.5578   1.8831   3.6459   5.5454
     6.9744   8.2903  10.6596  12.9153

          k =-0.0384-0.6057 0.9747 (  2221 PWs)   bands (ev):

   -11.1546 -10.1927  -8.5127  -7.6992  -6.4502  -5.1369  -5.0503  -2.6834
    -2.1203  -2.0266  -0.6453  -0.1754   1.3427   1.8843   4.8762   5.4450
     5.5997   7.9806   8.3843  12.3045

          k =-0.4953-0.0121 0.0001 (  2210 PWs)   bands (ev):

   -14.6513 -11.2852 -10.8278  -9.6210  -5.8140  -2.9086  -2.7592  -1.2483
    -0.3444   1.3987   1.8977   2.0641   2.5345   3.1156   3.6716   5.4565
     6.7981   8.1024  10.0208  12.0660

          k =-0.4955-0.0122 0.4875 (  2208 PWs)   bands (ev):

   -13.9180 -10.6141 -10.1475  -8.9714  -5.4748  -3.0348  -2.5434  -2.0460
    -1.5891  -0.7405   0.3258   0.3654   1.9224   2.7063   3.2628   5.6336
     7.2731   8.0501   9.5505  12.9817

          k =-0.4956-0.0123 0.9750 (  2218 PWs)   bands (ev):

   -11.7567  -8.6909  -8.4870  -8.1580  -6.6724  -5.2202  -4.7618  -3.6293
    -3.0569  -0.7454  -0.4340   0.0621   0.1612   2.7757   4.2659   5.5983
     6.0718   7.4233   8.7916  13.0625

          k =-0.5333-0.6175-0.0000 (  2218 PWs)   bands (ev):

   -14.0207 -12.9558 -11.0645  -7.5509  -5.3904  -4.8736  -1.4348  -0.6068
     0.1182   0.6375   1.1433   1.4396   2.0010   2.4081   4.0507   6.2445
     6.3675   8.4611  10.9671  11.3645

          k =-0.5335-0.6176 0.4874 (  2215 PWs)   bands (ev):

   -13.2910 -12.2451 -10.4060  -6.9229  -5.0506  -4.4531  -2.6062  -1.9353
    -1.0393  -0.7977   0.2865   0.7738   1.5987   2.0079   3.0226   5.8186
     6.5555   8.6068  10.3554  12.3879

          k =-0.5337-0.6178 0.9748 (  2215 PWs)   bands (ev):

   -11.1430 -10.1914  -8.5476  -7.6902  -6.4503  -5.1597  -5.0528  -2.6596
    -2.1132  -2.0239  -0.6367  -0.1645   1.3348   2.1353   4.4740   5.5981
     5.6009   7.8055   8.4836  12.3358

     the Fermi energy is     5.7921 ev

!    total energy              =     -90.64183405 Ry
     Harris-Foulkes estimate   =     -90.64183405 Ry
     estimated scf accuracy    <          4.5E-10 Ry

     The total energy is the sum of the following terms:

     one-electron contribution =     -81.33420195 Ry
     hartree contribution      =      55.44594385 Ry
     xc contribution           =     -27.79958598 Ry
     ewald contribution        =     -36.95421611 Ry
     smearing contrib. (-TS)   =       0.00022615 Ry

     convergence has been achieved in  10 iterations

     Forces acting on atoms (cartesian axes, Ry/au):

     atom    1 type  1   force =     0.00261833    0.00169996    0.00000089
     atom    2 type  1   force =     0.00336728   -0.00263313    0.00000020
     atom    3 type  1   force =     0.00305387   -0.00132727   -0.00000261
     atom    4 type  1   force =    -0.00262680   -0.00169907   -0.00000399
     atom    5 type  1   force =    -0.00305104    0.00132166    0.00000706
     atom    6 type  1   force =     0.00003155   -0.00221384   -0.00000305
     atom    7 type  1   force =    -0.00336870    0.00262780    0.00000146
     atom    8 type  1   force =    -0.00002449    0.00222389    0.00000005

     Total force =     0.009383     Total SCF correction =     0.000041


     Computing stress (Cartesian axis) and pressure

          total   stress  (Ry/bohr**3)                   (kbar)     P=       -1.29
  -0.00002735  -0.00002610   0.00000003           -4.02       -3.84        0.00
  -0.00002610   0.00001419  -0.00000001           -3.84        2.09       -0.00
   0.00000003  -0.00000001  -0.00001312            0.00       -0.00       -1.93


     number of scf cycles    =   5
     number of bfgs steps    =   4

     enthalpy old            =     -90.6416398264 Ry
     enthalpy new            =     -90.6417987801 Ry

     CASE: enthalpy_new < enthalpy_old

     new trust radius        =       0.0145941965 bohr
     new conv_thr            =       0.0000000002 Ry

     new unit-cell volume =    518.60689 a.u.^3 (    76.84961 Ang^3 )
     density =      2.07433 g/cm^3

CELL_PARAMETERS (bohr)
  11.597936321  -0.746109658   0.003516673
  -0.244030851   9.509673001   0.002439647
   0.001347600  -0.001199497   4.709876602

ATOMIC_POSITIONS (crystal)
C             0.7648803522        0.7819828866        0.3670013675
C             0.6534652995        0.6747925121        0.8671666151
C             0.9729965539        0.6147769704        0.3666845000
C             0.8104184121        0.0934167043        0.3669267141
C             0.6023030806        0.2606188509        0.3672253822
C             0.9970071679        0.4736560810        0.8666425615
C             0.9218239589        0.2005950078        0.8667641788
C             0.5782911750        0.4017499869        0.8672636808



     Writing output data file ./pp.save/
     NEW-OLD atomic charge density approx. for the potential
     extrapolated charge   31.98727, renormalised to   32.00000

     total cpu time spent up to now is       48.6 secs

     Self-consistent Calculation

     iteration #  1     ecut=    40.00 Ry     beta= 0.50
     Davidson diagonalization with overlap
     ethr =  1.00E-06,  avg # of iterations =  5.7

     total cpu time spent up to now is       51.4 secs

     total energy              =     -90.64201706 Ry
     Harris-Foulkes estimate   =     -90.67167117 Ry
     estimated scf accuracy    <       0.00011369 Ry

     iteration #  2     ecut=    40.00 Ry     beta= 0.50
     Davidson diagonalization with overlap
     ethr =  3.55E-07,  avg # of iterations =  2.3

     total cpu time spent up to now is       52.8 secs

     total energy              =     -90.64204167 Ry
     Harris-Foulkes estimate   =     -90.64205794 Ry
     estimated scf accuracy    <       0.00003837 Ry

     iteration #  3     ecut=    40.00 Ry     beta= 0.50
     Davidson diagonalization with overlap
     ethr =  1.20E-07,  avg # of iterations =  2.0

     total cpu time spent up to now is       54.1 secs

     total energy              =     -90.64204469 Ry
     Harris-Foulkes estimate   =     -90.64204910 Ry
     estimated scf accuracy    <       0.00001040 Ry

     iteration #  4     ecut=    40.00 Ry     beta= 0.50
     Davidson diagonalization with overlap
     ethr =  3.25E-08,  avg # of iterations =  2.0

     total cpu time spent up to now is       55.5 secs

     total energy              =     -90.64204060 Ry
     Harris-Foulkes estimate   =     -90.64205715 Ry
     estimated scf accuracy    <       0.00011669 Ry

     iteration #  5     ecut=    40.00 Ry     beta= 0.50
     Davidson diagonalization with overlap
     ethr =  3.25E-08,  avg # of iterations =  2.0

     total cpu time spent up to now is       56.8 secs

     total energy              =     -90.64204877 Ry
     Harris-Foulkes estimate   =     -90.64204882 Ry
     estimated scf accuracy    <       0.00000046 Ry

     iteration #  6     ecut=    40.00 Ry     beta= 0.50
     Davidson diagonalization with overlap
     ethr =  1.45E-09,  avg # of iterations =  2.3

     total cpu time spent up to now is       58.3 secs

     total energy              =     -90.64204885 Ry
     Harris-Foulkes estimate   =     -90.64204888 Ry
     estimated scf accuracy    <       0.00000012 Ry

     iteration #  7     ecut=    40.00 Ry     beta= 0.50
     Davidson diagonalization with overlap
     ethr =  3.77E-10,  avg # of iterations =  2.0

     total cpu time spent up to now is       59.7 secs

     total energy              =     -90.64204887 Ry
     Harris-Foulkes estimate   =     -90.64204888 Ry
     estimated scf accuracy    <       0.00000002 Ry

     iteration #  8     ecut=    40.00 Ry     beta= 0.50
     Davidson diagonalization with overlap
     ethr =  7.43E-11,  avg # of iterations =  2.0

     total cpu time spent up to now is       61.1 secs

     total energy              =     -90.64204888 Ry
     Harris-Foulkes estimate   =     -90.64204888 Ry
     estimated scf accuracy    <          3.5E-09 Ry

     iteration #  9     ecut=    40.00 Ry     beta= 0.50
     Davidson diagonalization with overlap
     ethr =  1.09E-11,  avg # of iterations =  2.0

     total cpu time spent up to now is       62.7 secs

     total energy              =     -90.64204888 Ry
     Harris-Foulkes estimate   =     -90.64204888 Ry
     estimated scf accuracy    <          1.8E-09 Ry

     iteration # 10     ecut=    40.00 Ry     beta= 0.50
     Davidson diagonalization with overlap
     ethr =  5.53E-12,  avg # of iterations =  1.5

     total cpu time spent up to now is       64.0 secs

     total energy              =     -90.64204888 Ry
     Harris-Foulkes estimate   =     -90.64204888 Ry
     estimated scf accuracy    <          1.6E-10 Ry

     iteration # 11     ecut=    40.00 Ry     beta= 0.50
     Davidson diagonalization with overlap
     ethr =  5.14E-13,  avg # of iterations =  2.2

     total cpu time spent up to now is       65.7 secs

     End of self-consistent calculation

          k = 0.0000 0.0000 0.0000 (  2223 PWs)   bands (ev):

   -14.6582 -11.2437 -10.8235  -9.6628  -5.7688  -3.0083  -2.8595  -1.3151
    -0.3432   1.4181   1.7974   2.5201   2.8162   3.0970   3.5705   5.3687
     6.7699   7.9689  10.6612  11.4376

          k =-0.0002-0.0001 0.4876 (  2215 PWs)   bands (ev):

   -13.9241 -10.5729 -10.1443  -9.0112  -5.4350  -3.0327  -2.4979  -2.2709
    -1.6085  -0.7218   0.2983   0.3183   1.8987   3.1016   3.4110   5.5388
     7.3693   7.7533  10.0068  12.1776

          k =-0.0003-0.0003 0.9753 (  2211 PWs)   bands (ev):

   -11.7603  -8.6503  -8.4892  -8.1553  -6.7035  -5.1902  -4.7638  -3.6534
    -3.0349  -0.7150  -0.4909   0.0369   0.1082   2.5543   4.6946   5.6164
     5.9403   7.7013   8.6638  13.3253

          k =-0.0389-0.6048-0.0001 (  2218 PWs)   bands (ev):

   -14.0296 -12.9662 -11.0137  -7.5443  -5.4363  -4.9079  -1.5958  -0.5953
     0.1246   0.5669   1.1227   1.4600   1.8751   3.0820   4.0360   5.9290
     6.9882   8.1169  11.3612  11.8573

          k =-0.0391-0.6049 0.4875 (  2216 PWs)   bands (ev):

   -13.2989 -12.2547 -10.3570  -6.9174  -5.0773  -4.4813  -2.6307  -1.9363
    -1.0184  -0.9087   0.2546   0.7523   1.5599   1.8908   3.6571   5.5430
     7.0038   8.2677  10.6786  12.9197

          k =-0.0392-0.6050 0.9751 (  2221 PWs)   bands (ev):

   -11.1483 -10.1978  -8.5029  -7.6887  -6.4608  -5.1301  -5.0543  -2.6774
    -2.1413  -2.0316  -0.6356  -0.1887   1.3598   1.8856   4.8930   5.4438
     5.6095   7.9928   8.3869  12.2984

          k =-0.4959-0.0127 0.0001 (  2210 PWs)   bands (ev):

   -14.6486 -11.2814 -10.8312  -9.6439  -5.7943  -2.8846  -2.7671  -1.2591
    -0.3404   1.4121   1.8945   2.0682   2.5204   3.0996   3.6826   5.4475
     6.8160   8.1142  10.0398  12.0533

          k =-0.4960-0.0129 0.4878 (  2208 PWs)   bands (ev):

   -13.9148 -10.6096 -10.1503  -8.9929  -5.4540  -3.0321  -2.5189  -2.0554
    -1.5892  -0.7304   0.3122   0.3437   1.9314   2.7118   3.2603   5.6302
     7.2907   8.0603   9.5623  12.9933

          k =-0.4962-0.0130 0.9754 (  2218 PWs)   bands (ev):

   -11.7517  -8.6835  -8.4801  -8.1582  -6.6914  -5.2151  -4.7634  -3.6437
    -3.0502  -0.7279  -0.4347   0.0561   0.1749   2.7719   4.2781   5.6009
     6.0755   7.4215   8.8209  13.0213

          k =-0.5348-0.6175-0.0000 (  2218 PWs)   bands (ev):

   -14.0167 -12.9644 -11.0600  -7.5511  -5.3851  -4.8951  -1.4410  -0.5913
     0.1282   0.6404   1.1219   1.4550   2.0231   2.4118   4.0366   6.2501
     6.4032   8.4354  10.9767  11.3595

          k =-0.5349-0.6176 0.4876 (  2215 PWs)   bands (ev):

   -13.2864 -12.2531 -10.4006  -6.9234  -5.0407  -4.4694  -2.6024  -1.9420
    -1.0321  -0.8002   0.2863   0.7788   1.5951   2.0221   3.0271   5.8196
     6.5849   8.5822  10.3698  12.4017

          k =-0.5351-0.6178 0.9753 (  2215 PWs)   bands (ev):

   -11.1365 -10.1966  -8.5383  -7.6796  -6.4609  -5.1532  -5.0563  -2.6543
    -2.1342  -2.0286  -0.6268  -0.1774   1.3510   2.1394   4.4841   5.6023
     5.6079   7.8137   8.4936  12.3319

     the Fermi energy is     5.7944 ev

!    total energy              =     -90.64204888 Ry
     Harris-Foulkes estimate   =     -90.64204888 Ry
     estimated scf accuracy    <          1.7E-11 Ry

     The total energy is the sum of the following terms:

     one-electron contribution =     -81.06395627 Ry
     hartree contribution      =      55.31306073 Ry
     xc contribution           =     -27.80077396 Ry
     ewald contribution        =     -37.09059945 Ry
     smearing contrib. (-TS)   =       0.00022007 Ry

     convergence has been achieved in  11 iterations

     Forces acting on atoms (cartesian axes, Ry/au):

     atom    1 type  1   force =     0.00259319   -0.00015853   -0.00000255
     atom    2 type  1   force =    -0.00061709   -0.00379085    0.00000258
     atom    3 type  1   force =     0.00309309    0.00066278   -0.00000606
     atom    4 type  1   force =    -0.00263746    0.00010403    0.00000805
     atom    5 type  1   force =    -0.00311279   -0.00062195   -0.00000031
     atom    6 type  1   force =    -0.00180435   -0.00273482    0.00000154
     atom    7 type  1   force =     0.00070792    0.00394953   -0.00000870
     atom    8 type  1   force =     0.00177749    0.00258982    0.00000545

     Total force =     0.009233     Total SCF correction =     0.000007


     Computing stress (Cartesian axis) and pressure

          total   stress  (Ry/bohr**3)                   (kbar)     P=       -0.95
  -0.00001942  -0.00000511   0.00000002           -2.86       -0.75        0.00
  -0.00000511  -0.00000530  -0.00000001           -0.75       -0.78       -0.00
   0.00000002  -0.00000001   0.00000527            0.00       -0.00        0.78


     number of scf cycles    =   6
     number of bfgs steps    =   5

     enthalpy old            =     -90.6417987801 Ry
     enthalpy new            =     -90.6420136234 Ry

     CASE: enthalpy_new < enthalpy_old

     new trust radius        =       0.0130015311 bohr
     new conv_thr            =       0.0000000002 Ry

     new unit-cell volume =    518.48314 a.u.^3 (    76.83127 Ang^3 )
     density =      2.07483 g/cm^3

CELL_PARAMETERS (bohr)
  11.584640140  -0.756309196   0.003546801
  -0.251592685   9.519077052   0.002435598
   0.001359372  -0.001203008   4.709852342

ATOMIC_POSITIONS (crystal)
C             0.7657146482        0.7820137117        0.3670001877
C             0.6544192965        0.6743011229        0.8671670712
C             0.9741180568        0.6148553782        0.3666815304
C             0.8095798204        0.0933815501        0.3669281166
C             0.6011805108        0.2605430893        0.3672275533
C             0.9973644755        0.4733435172        0.8666411377
C             0.9208753281        0.2010973044        0.8667619820
C             0.5779338636        0.4020533262        0.8672674212



     Writing output data file ./pp.save/
     NEW-OLD atomic charge density approx. for the potential
     extrapolated charge   31.99236, renormalised to   32.00000

     total cpu time spent up to now is       65.8 secs

     Self-consistent Calculation

     iteration #  1     ecut=    40.00 Ry     beta= 0.50
     Davidson diagonalization with overlap
     ethr =  1.00E-06,  avg # of iterations =  4.6

     total cpu time spent up to now is       68.9 secs

     total energy              =     -90.64214476 Ry
     Harris-Foulkes estimate   =     -90.65985101 Ry
     estimated scf accuracy    <       0.00009388 Ry

     iteration #  2     ecut=    40.00 Ry     beta= 0.50
     Davidson diagonalization with overlap
     ethr =  2.93E-07,  avg # of iterations =  2.0

     total cpu time spent up to now is       70.6 secs

     total energy              =     -90.64215663 Ry
     Harris-Foulkes estimate   =     -90.64216387 Ry
     estimated scf accuracy    <       0.00001865 Ry

     iteration #  3     ecut=    40.00 Ry     beta= 0.50
     Davidson diagonalization with overlap
     ethr =  5.83E-08,  avg # of iterations =  2.0

     total cpu time spent up to now is       72.2 secs

     total energy              =     -90.64215925 Ry
     Harris-Foulkes estimate   =     -90.64216110 Ry
     estimated scf accuracy    <       0.00000529 Ry

     iteration #  4     ecut=    40.00 Ry     beta= 0.50
     Davidson diagonalization with overlap
     ethr =  1.65E-08,  avg # of iterations =  2.0

     total cpu time spent up to now is       73.8 secs

     total energy              =     -90.64215777 Ry
     Harris-Foulkes estimate   =     -90.64216393 Ry
     estimated scf accuracy    <       0.00004249 Ry

     iteration #  5     ecut=    40.00 Ry     beta= 0.50
     Davidson diagonalization with overlap
     ethr =  1.65E-08,  avg # of iterations =  1.8

     total cpu time spent up to now is       75.3 secs

     total energy              =     -90.64216090 Ry
     Harris-Foulkes estimate   =     -90.64216090 Ry
     estimated scf accuracy    <       0.00000032 Ry

     iteration #  6     ecut=    40.00 Ry     beta= 0.50
     Davidson diagonalization with overlap
     ethr =  1.01E-09,  avg # of iterations =  2.4

     total cpu time spent up to now is       77.3 secs

     total energy              =     -90.64216095 Ry
     Harris-Foulkes estimate   =     -90.64216098 Ry
     estimated scf accuracy    <       0.00000010 Ry

     iteration #  7     ecut=    40.00 Ry     beta= 0.50
     Davidson diagonalization with overlap
     ethr =  3.18E-10,  avg # of iterations =  2.0

     total cpu time spent up to now is       79.1 secs

     total energy              =     -90.64216097 Ry
     Harris-Foulkes estimate   =     -90.64216097 Ry
     estimated scf accuracy    <       0.00000001 Ry

     iteration #  8     ecut=    40.00 Ry     beta= 0.50
     Davidson diagonalization with overlap
     ethr =  3.20E-11,  avg # of iterations =  2.0

     total cpu time spent up to now is       80.9 secs

     total energy              =     -90.64216097 Ry
     Harris-Foulkes estimate   =     -90.64216097 Ry
     estimated scf accuracy    <          1.9E-09 Ry

     iteration #  9     ecut=    40.00 Ry     beta= 0.50
     Davidson diagonalization with overlap
     ethr =  5.84E-12,  avg # of iterations =  2.0

     total cpu time spent up to now is       82.7 secs

     total energy              =     -90.64216097 Ry
     Harris-Foulkes estimate   =     -90.64216097 Ry
     estimated scf accuracy    <          7.9E-10 Ry

     iteration # 10     ecut=    40.00 Ry     beta= 0.50
     Davidson diagonalization with overlap
     ethr =  2.45E-12,  avg # of iterations =  1.6

     total cpu time spent up to now is       84.3 secs

     End of self-consistent calculation

          k = 0.0000 0.0000 0.0000 (  2223 PWs)   bands (ev):

   -14.6508 -11.2351 -10.8256  -9.6659  -5.7610  -3.0144  -2.8327  -1.3321
    -0.3336   1.4318   1.7979   2.5253   2.8267   3.1053   3.5687   5.3507
     6.7950   7.9589  10.6802  11.4550

          k =-0.0002-0.0001 0.4876 (  2215 PWs)   bands (ev):

   -13.9167 -10.5646 -10.1457  -9.0139  -5.4280  -3.0232  -2.4766  -2.2781
    -1.6122  -0.7106   0.3006   0.3148   1.9109   3.0918   3.4214   5.5269
     7.3980   7.7420  10.0185  12.1901

          k =-0.0003-0.0003 0.9753 (  2211 PWs)   bands (ev):

   -11.7527  -8.6434  -8.4832  -8.1551  -6.7036  -5.1823  -4.7606  -3.6505
    -3.0347  -0.6956  -0.4886   0.0332   0.1156   2.5421   4.7078   5.6130
     5.9409   7.6997   8.6975  13.2992

          k =-0.0394-0.6042-0.0001 (  2218 PWs)   bands (ev):

   -14.0251 -12.9588 -11.0110  -7.5319  -5.4415  -4.9201  -1.6019  -0.5831
     0.1354   0.5652   1.1250   1.4752   1.8899   3.0938   4.0468   5.9211
     7.0133   8.0975  11.3716  11.8448

          k =-0.0396-0.6044 0.4875 (  2216 PWs)   bands (ev):

   -13.2944 -12.2473 -10.3541  -6.9051  -5.0818  -4.4920  -2.6237  -1.9305
    -1.0084  -0.9123   0.2553   0.7602   1.5713   1.9006   3.6676   5.5334
     7.0274   8.2487  10.6910  12.9037

          k =-0.0398-0.6045 0.9751 (  2221 PWs)   bands (ev):

   -11.1441 -10.1899  -8.4989  -7.6835  -6.4560  -5.1269  -5.0428  -2.6786
    -2.1490  -2.0204  -0.6340  -0.1961   1.3753   1.8792   4.9044   5.4343
     5.6152   8.0025   8.4047  12.2984

          k =-0.4965-0.0131 0.0001 (  2210 PWs)   bands (ev):

   -14.6410 -11.2737 -10.8333  -9.6466  -5.7869  -2.8584  -2.7709  -1.2764
    -0.3307   1.4256   1.8990   2.0718   2.5255   3.1080   3.6793   5.4285
     6.8483   8.1013  10.0519  12.0478

          k =-0.4967-0.0133 0.4878 (  2208 PWs)   bands (ev):

   -13.9071 -10.6022 -10.1518  -8.9953  -5.4473  -3.0224  -2.4978  -2.0609
    -1.5928  -0.7198   0.3152   0.3399   1.9455   2.7152   3.2511   5.6175
     7.3129   8.0613   9.5690  13.0074

          k =-0.4968-0.0134 0.9754 (  2218 PWs)   bands (ev):

   -11.7440  -8.6772  -8.4739  -8.1579  -6.6911  -5.2077  -4.7602  -3.6403
    -3.0507  -0.7086  -0.4291   0.0525   0.1801   2.7622   4.2853   5.5981
     6.0795   7.4149   8.8610  12.9860

          k =-0.5359-0.6174-0.0000 (  2218 PWs)   bands (ev):

   -14.0120 -12.9570 -11.0582  -7.5381  -5.3909  -4.9072  -1.4435  -0.5797
     0.1390   0.6379   1.1242   1.4700   2.0381   2.4180   4.0474   6.2474
     6.4236   8.4124  10.9830  11.3517

          k =-0.5361-0.6175 0.4876 (  2215 PWs)   bands (ev):

   -13.2816 -12.2457 -10.3986  -6.9106  -5.0457  -4.4799  -2.5951  -1.9362
    -1.0224  -0.8008   0.2892   0.7829   1.6062   2.0324   3.0319   5.8143
     6.6043   8.5629  10.3786  12.4090

          k =-0.5363-0.6176 0.9753 (  2215 PWs)   bands (ev):

   -11.1320 -10.1886  -8.5350  -7.6743  -6.4561  -5.1504  -5.0445  -2.6558
    -2.1418  -2.0172  -0.6247  -0.1844   1.3653   2.1356   4.4893   5.5967
     5.6134   7.8190   8.5176  12.3329

     the Fermi energy is     5.7907 ev

!    total energy              =     -90.64216097 Ry
     Harris-Foulkes estimate   =     -90.64216097 Ry
     estimated scf accuracy    <          9.5E-11 Ry

     The total energy is the sum of the following terms:

     one-electron contribution =     -80.67046727 Ry
     hartree contribution      =      55.11902180 Ry
     xc contribution           =     -27.79863237 Ry
     ewald contribution        =     -37.29234096 Ry
     smearing contrib. (-TS)   =       0.00025783 Ry

     convergence has been achieved in  10 iterations

     Forces acting on atoms (cartesian axes, Ry/au):

     atom    1 type  1   force =     0.00084218   -0.00116811   -0.00000016
     atom    2 type  1   force =    -0.00190356   -0.00204469    0.00000222
     atom    3 type  1   force =     0.00237905    0.00073723   -0.00000273
     atom    4 type  1   force =    -0.00082736    0.00117691   -0.00000145
     atom    5 type  1   force =    -0.00237477   -0.00074165    0.00000590
     atom    6 type  1   force =    -0.00175939   -0.00083796   -0.00000355
     atom    7 type  1   force =     0.00189317    0.00203517    0.00000089
     atom    8 type  1   force =     0.00175069    0.00084311   -0.00000112

     Total force =     0.006296     Total SCF correction =     0.000017


     Computing stress (Cartesian axis) and pressure

          total   stress  (Ry/bohr**3)                   (kbar)     P=       -1.81
  -0.00001544   0.00000220   0.00000004           -2.27        0.32        0.01
   0.00000220  -0.00001372   0.00000001            0.32       -2.02        0.00
   0.00000004   0.00000001  -0.00000783            0.01        0.00       -1.15


     number of scf cycles    =   7
     number of bfgs steps    =   6

     enthalpy old            =     -90.6420136234 Ry
     enthalpy new            =     -90.6421257241 Ry

     CASE: enthalpy_new < enthalpy_old

     new trust radius        =       0.0081615715 bohr
     new conv_thr            =       0.0000000001 Ry

     new unit-cell volume =    517.92529 a.u.^3 (    76.74861 Ang^3 )
     density =      2.07706 g/cm^3

CELL_PARAMETERS (bohr)
  11.574391197  -0.759136142   0.003572708
  -0.253513679   9.520976002   0.002436271
   0.001369823  -0.001202275   4.708110096

ATOMIC_POSITIONS (crystal)
C             0.7661012020        0.7818828615        0.3669999735
C             0.6547050239        0.6739976895        0.8671678424
C             0.9748222844        0.6149942943        0.3666797282
C             0.8091954216        0.0935152441        0.3669273072
C             0.6004771480        0.2604024010        0.3672306141
C             0.9974248037        0.4732398448        0.8666392605
C             0.9205859274        0.2013944959        0.8667620288
C             0.5778741889        0.4021621690        0.8672682453



     Writing output data file ./pp.save/
     NEW-OLD atomic charge density approx. for the potential
     extrapolated charge   31.96553, renormalised to   32.00000

     total cpu time spent up to now is       84.4 secs

     Self-consistent Calculation

     iteration #  1     ecut=    40.00 Ry     beta= 0.50
     Davidson diagonalization with overlap
     ethr =  1.00E-06,  avg # of iterations =  3.7

     total cpu time spent up to now is       87.3 secs

     total energy              =     -90.64203261 Ry
     Harris-Foulkes estimate   =     -90.72167419 Ry
     estimated scf accuracy    <       0.00014550 Ry

     iteration #  2     ecut=    40.00 Ry     beta= 0.50
     Davidson diagonalization with overlap
     ethr =  4.55E-07,  avg # of iterations =  3.3

     total cpu time spent up to now is       90.1 secs

     total energy              =     -90.64218753 Ry
     Harris-Foulkes estimate   =     -90.64227696 Ry
     estimated scf accuracy    <       0.00027360 Ry

     iteration #  3     ecut=    40.00 Ry     beta= 0.50
     Davidson diagonalization with overlap
     ethr =  4.55E-07,  avg # of iterations =  2.0

     total cpu time spent up to now is       91.9 secs

     total energy              =     -90.64219653 Ry
     Harris-Foulkes estimate   =     -90.64220907 Ry
     estimated scf accuracy    <       0.00004389 Ry

     iteration #  4     ecut=    40.00 Ry     beta= 0.50
     Davidson diagonalization with overlap
     ethr =  1.37E-07,  avg # of iterations =  1.8

     total cpu time spent up to now is       93.6 secs

     total energy              =     -90.64219451 Ry
     Harris-Foulkes estimate   =     -90.64219972 Ry
     estimated scf accuracy    <       0.00001813 Ry

     iteration #  5     ecut=    40.00 Ry     beta= 0.50
     Davidson diagonalization with overlap
     ethr =  5.66E-08,  avg # of iterations =  1.9

     total cpu time spent up to now is       95.4 secs

     total energy              =     -90.64219401 Ry
     Harris-Foulkes estimate   =     -90.64219801 Ry
     estimated scf accuracy    <       0.00002013 Ry

     iteration #  6     ecut=    40.00 Ry     beta= 0.50
     Davidson diagonalization with overlap
     ethr =  5.66E-08,  avg # of iterations =  1.2

     total cpu time spent up to now is       96.8 secs

     total energy              =     -90.64219599 Ry
     Harris-Foulkes estimate   =     -90.64219602 Ry
     estimated scf accuracy    <       0.00000013 Ry

     iteration #  7     ecut=    40.00 Ry     beta= 0.50
     Davidson diagonalization with overlap
     ethr =  4.02E-10,  avg # of iterations =  3.8

     total cpu time spent up to now is       99.9 secs

     total energy              =     -90.64219609 Ry
     Harris-Foulkes estimate   =     -90.64219610 Ry
     estimated scf accuracy    <       0.00000003 Ry

     iteration #  8     ecut=    40.00 Ry     beta= 0.50
     Davidson diagonalization with overlap
     ethr =  8.91E-11,  avg # of iterations =  1.6

     total cpu time spent up to now is      101.6 secs

     total energy              =     -90.64219609 Ry
     Harris-Foulkes estimate   =     -90.64219609 Ry
     estimated scf accuracy    <          6.5E-09 Ry

     iteration #  9     ecut=    40.00 Ry     beta= 0.50
     Davidson diagonalization with overlap
     ethr =  2.02E-11,  avg # of iterations =  1.8

     total cpu time spent up to now is      103.3 secs

     total energy              =     -90.64219609 Ry
     Harris-Foulkes estimate   =     -90.64219609 Ry
     estimated scf accuracy    <          1.4E-09 Ry

     iteration # 10     ecut=    40.00 Ry     beta= 0.50
     Davidson diagonalization with overlap
     ethr =  4.41E-12,  avg # of iterations =  2.0

     total cpu time spent up to now is      105.5 secs

     total energy              =     -90.64219609 Ry
     Harris-Foulkes estimate   =     -90.64219609 Ry
     estimated scf accuracy    <          2.1E-10 Ry

     iteration # 11     ecut=    40.00 Ry     beta= 0.50
     Davidson diagonalization with overlap
     ethr =  6.43E-13,  avg # of iterations =  1.7

     total cpu time spent up to now is      107.2 secs

     End of self-consistent calculation

          k = 0.0000 0.0000 0.0000 (  2223 PWs)   bands (ev):

   -14.6444 -11.2280 -10.8240  -9.6551  -5.7568  -3.0110  -2.8136  -1.3331
    -0.3181   1.4438   1.8138   2.5434   2.8366   3.1252   3.5756   5.3457
     6.8177   7.9608  10.7026  11.4753

          k =-0.0002-0.0001 0.4878 (  2215 PWs)   bands (ev):

   -13.9098 -10.5574 -10.1432  -9.0024  -5.4223  -3.0111  -2.4603  -2.2737
    -1.6036  -0.7018   0.3179   0.3249   1.9265   3.0982   3.4317   5.5262
     7.4231   7.7438  10.0393  12.2088

          k =-0.0003-0.0003 0.9756 (  2211 PWs)   bands (ev):

   -11.7441  -8.6359  -8.4713  -8.1498  -6.6922  -5.1737  -4.7514  -3.6356
    -3.0321  -0.6795  -0.4745   0.0393   0.1226   2.5466   4.7228   5.6177
     5.9506   7.7118   8.7276  13.2980

          k =-0.0396-0.6041-0.0001 (  2218 PWs)   bands (ev):

   -14.0227 -12.9455 -11.0093  -7.5205  -5.4387  -4.9141  -1.6017  -0.5707
     0.1480   0.5722   1.1457   1.4883   1.9061   3.1056   4.0665   5.9257
[...]
     estimated scf accuracy    <          3.2E-10 Ry

     iteration # 13     ecut=    40.00 Ry     beta= 0.50
     Davidson diagonalization with overlap
     ethr =  1.00E-12,  avg # of iterations =  2.4

     total cpu time spent up to now is     2056.0 secs

     End of self-consistent calculation

          k = 0.0000 0.0000 0.0000 (  2223 PWs)   bands (ev):

   -13.6946 -10.1668  -9.8809  -8.5776  -4.7204  -2.1386  -1.7641  -0.3014
     0.6521   2.4997   2.8495   3.4852   4.2054   4.2148   4.4348   6.4643
     8.4488   8.6971  11.4069  13.1368

          k =-0.0006-0.0002 0.4878 (  2215 PWs)   bands (ev):

   -12.9590  -9.4901  -9.2081  -7.9244  -4.3911  -2.0463  -1.3930  -1.3902
    -0.6407   0.3458   1.3249   1.3997   3.0271   3.8981   4.7905   6.6288
     8.5498   9.0047  10.8699  13.9299

          k =-0.0012-0.0004 0.9757 (  2211 PWs)   bands (ev):

   -10.7899  -7.5530  -7.4916  -7.2367  -5.6304  -4.0903  -3.8392  -2.5469
    -2.0062   0.3687   0.4984   1.0790   1.0874   3.4069   6.0178   6.6898
     6.8555   8.7124  10.1663  14.2013

          k =-0.1025-0.6150-0.0001 (  2218 PWs)   bands (ev):

   -13.1109 -11.9303  -9.9316  -6.3818  -4.5629  -3.8684  -0.5825   0.2625
     1.0982   1.6326   2.1740   2.5186   2.8512   4.4290   5.1183   6.9754
     8.2899   9.3576  12.1463  12.8198

          k =-0.1031-0.6152 0.4878 (  2216 PWs)   bands (ev):

   -12.3786 -11.2180  -9.2751  -5.7596  -4.1971  -3.4217  -1.6740  -0.9575
     0.0637   0.1175   1.1406   1.8520   2.6018   2.8723   4.9301   6.5850
     8.2927   9.4965  11.5136  13.9803

          k =-0.1037-0.6154 0.9756 (  2221 PWs)   bands (ev):

   -10.2219  -9.1564  -7.4174  -6.7621  -5.4210  -4.0685  -3.9152  -1.7533
    -1.0973  -0.9129   0.3498   0.8733   2.2991   2.7844   6.1860   6.3294
     6.6894   8.8571   9.7321  13.3672

          k =-0.5440-0.0614 0.0005 (  2210 PWs)   bands (ev):

   -13.6672 -10.2475  -9.9095  -8.5712  -4.6978  -1.7555  -1.7053  -0.2442
     0.6611   2.4854   2.9833   3.0885   3.4860   4.2047   4.6567   6.2204
     7.6226   9.4119  11.6338  13.1462

          k =-0.5446-0.0616 0.4884 (  2208 PWs)   bands (ev):

   -12.9323  -9.5713  -9.2305  -7.9171  -4.3719  -2.0306  -1.4131  -1.0003
    -0.5899   0.3176   1.3492   1.4178   3.1075   3.6364   4.2352   6.4564
     8.1917   9.2744  10.9492  14.2288

          k =-0.5452-0.0618 0.9762 (  2218 PWs)   bands (ev):

   -10.7651  -7.6349  -7.4674  -7.2451  -5.6299  -4.1525  -3.8337  -2.5484
    -1.9761   0.3630   0.6573   1.0978   1.1630   3.8800   5.1895   6.6145
     7.2946   8.6075   9.6461  13.8405

          k =-0.6465-0.6765 0.0005 (  2218 PWs)   bands (ev):

   -13.0863 -11.9289 -10.0005  -6.4772  -4.4107  -3.8671  -0.4017   0.4885
     1.1054   1.7639   2.1717   2.5136   3.0327   3.3372   5.1108   7.4988
     7.5004   9.4230  12.3064  12.3612

          k =-0.6471-0.6766 0.4883 (  2215 PWs)   bands (ev):

   -12.3543 -11.2167  -9.3408  -5.8475  -4.0839  -3.4199  -1.6124  -0.9496
     0.0438   0.2431   1.3564   1.8884   2.6537   3.0226   3.9757   7.0426
     7.6436   9.5368  11.7014  13.5661

          k =-0.6477-0.6768 0.9762 (  2215 PWs)   bands (ev):

   -10.1983  -9.1554  -7.4783  -6.7424  -5.4163  -4.0984  -3.9814  -1.6668
    -1.1021  -0.9450   0.3853   0.8848   2.3478   3.2006   5.3997   6.5526
     6.8907   9.1219   9.3339  13.5124

     the Fermi energy is     6.8698 ev

!    total energy              =     -90.64384176 Ry
     Harris-Foulkes estimate   =     -90.64384176 Ry
     estimated scf accuracy    <          7.3E-11 Ry

     The total energy is the sum of the following terms:

     one-electron contribution =     -50.53765105 Ry
     hartree contribution      =      41.28618824 Ry
     xc contribution           =     -27.83947696 Ry
     ewald contribution        =     -53.55407168 Ry
     smearing contrib. (-TS)   =       0.00116969 Ry

     convergence has been achieved in  13 iterations

     Forces acting on atoms (cartesian axes, Ry/au):

     atom    1 type  1   force =    -0.01021103    0.00579554   -0.00000522
     atom    2 type  1   force =    -0.01132826    0.00002460   -0.00000577
     atom    3 type  1   force =     0.01924870    0.00363180   -0.00004270
     atom    4 type  1   force =     0.01037734   -0.00582556    0.00006674
     atom    5 type  1   force =    -0.01945974   -0.00361289    0.00007334
     atom    6 type  1   force =    -0.00169166   -0.00013308   -0.00010185
     atom    7 type  1   force =     0.01156270    0.00012060    0.00003611
     atom    8 type  1   force =     0.00150198   -0.00000100   -0.00002065

     Total force =     0.036361     Total SCF correction =     0.000021


     Computing stress (Cartesian axis) and pressure

          total   stress  (Ry/bohr**3)                   (kbar)     P=       10.71
   0.00023044  -0.00001638  -0.00000058           33.90       -2.41       -0.09
  -0.00001638  -0.00004175   0.00000047           -2.41       -6.14        0.07
  -0.00000058   0.00000047   0.00002974           -0.09        0.07        4.38


     number of scf cycles    =  33
     number of bfgs steps    =  32

     enthalpy old            =     -90.6436416179 Ry
     enthalpy new            =     -90.6438096200 Ry

     CASE: enthalpy_new < enthalpy_old

     new trust radius        =       0.0753373777 bohr
     new conv_thr            =       0.0000000002 Ry

     new unit-cell volume =    468.21194 a.u.^3 (    69.38185 Ang^3 )
     density =      2.29760 g/cm^3

CELL_PARAMETERS (bohr)
  10.716570098  -1.968831975   0.013544287
  -1.211580957   9.499523380   0.002160749
   0.005295522  -0.001259884   4.709587080

ATOMIC_POSITIONS (crystal)
C             0.7654490931        0.7753470618        0.3671323830
C             0.6423908072        0.6382648334        0.8677661446
C             0.9901872933        0.6607915733        0.3660832582
C             0.8097833263        0.1000069560        0.3667342128
C             0.5851878224        0.2146389647        0.3678640038
C             1.0187986519        0.5280678633        0.8658450503
C             0.9328117542        0.2371198416        0.8661301842
C             0.5565772517        0.3473519059        0.8681197631



     Writing output data file ./pp.save/
     NEW-OLD atomic charge density approx. for the potential
     extrapolated charge   31.68704, renormalised to   32.00000

     total cpu time spent up to now is     2056.4 secs

     Self-consistent Calculation

     iteration #  1     ecut=    40.00 Ry     beta= 0.50
     Davidson diagonalization with overlap
     ethr =  1.00E-06,  avg # of iterations =  8.3

     total cpu time spent up to now is     2088.7 secs

     total energy              =     -90.63574441 Ry
     Harris-Foulkes estimate   =     -91.07287635 Ry
     estimated scf accuracy    <       0.00764325 Ry

     iteration #  2     ecut=    40.00 Ry     beta= 0.50
     Davidson diagonalization with overlap
     ethr =  2.39E-05,  avg # of iterations =  3.8

     total cpu time spent up to now is     2104.7 secs

     total energy              =     -90.64392425 Ry
     Harris-Foulkes estimate   =     -90.64799813 Ry
     estimated scf accuracy    <       0.01221227 Ry

     iteration #  3     ecut=    40.00 Ry     beta= 0.50
     Davidson diagonalization with overlap
     ethr =  2.39E-05,  avg # of iterations =  2.2

     total cpu time spent up to now is     2115.0 secs

     total energy              =     -90.64390852 Ry
     Harris-Foulkes estimate   =     -90.64480361 Ry
     estimated scf accuracy    <       0.00229182 Ry

     iteration #  4     ecut=    40.00 Ry     beta= 0.50
     Davidson diagonalization with overlap
     ethr =  7.16E-06,  avg # of iterations =  3.0

     total cpu time spent up to now is     2127.8 secs

     total energy              =     -90.64406816 Ry
     Harris-Foulkes estimate   =     -90.64419821 Ry
     estimated scf accuracy    <       0.00025666 Ry

     iteration #  5     ecut=    40.00 Ry     beta= 0.50
     Davidson diagonalization with overlap
     ethr =  8.02E-07,  avg # of iterations =  3.2

     total cpu time spent up to now is     2141.6 secs

     total energy              =     -90.64414414 Ry
     Harris-Foulkes estimate   =     -90.64418075 Ry
     estimated scf accuracy    <       0.00018727 Ry

     iteration #  6     ecut=    40.00 Ry     beta= 0.50
     Davidson diagonalization with overlap
     ethr =  5.85E-07,  avg # of iterations =  1.0

     total cpu time spent up to now is     2149.4 secs

     total energy              =     -90.64414140 Ry
     Harris-Foulkes estimate   =     -90.64416894 Ry
     estimated scf accuracy    <       0.00007764 Ry

     iteration #  7     ecut=    40.00 Ry     beta= 0.50
     Davidson diagonalization with overlap
     ethr =  2.43E-07,  avg # of iterations =  2.0

     total cpu time spent up to now is     2159.7 secs

     total energy              =     -90.64415333 Ry
     Harris-Foulkes estimate   =     -90.64415378 Ry
     estimated scf accuracy    <       0.00000150 Ry

     iteration #  8     ecut=    40.00 Ry     beta= 0.50
     Davidson diagonalization with overlap
     ethr =  4.70E-09,  avg # of iterations =  2.8

     total cpu time spent up to now is     2172.7 secs

     total energy              =     -90.64415365 Ry
     Harris-Foulkes estimate   =     -90.64415374 Ry
     estimated scf accuracy    <       0.00000028 Ry

     iteration #  9     ecut=    40.00 Ry     beta= 0.50
     Davidson diagonalization with overlap
     ethr =  8.74E-10,  avg # of iterations =  2.7

     total cpu time spent up to now is     2185.6 secs

     total energy              =     -90.64415369 Ry
     Harris-Foulkes estimate   =     -90.64415377 Ry
     estimated scf accuracy    <       0.00000023 Ry

     iteration # 10     ecut=    40.00 Ry     beta= 0.50
     Davidson diagonalization with overlap
     ethr =  7.28E-10,  avg # of iterations =  2.0

     total cpu time spent up to now is     2195.9 secs

     total energy              =     -90.64415370 Ry
     Harris-Foulkes estimate   =     -90.64415371 Ry
     estimated scf accuracy    <       0.00000004 Ry

     iteration # 11     ecut=    40.00 Ry     beta= 0.50
     Davidson diagonalization with overlap
     ethr =  1.27E-10,  avg # of iterations =  2.2

     total cpu time spent up to now is     2207.4 secs

     total energy              =     -90.64415371 Ry
     Harris-Foulkes estimate   =     -90.64415371 Ry
     estimated scf accuracy    <          1.2E-09 Ry

     iteration # 12     ecut=    40.00 Ry     beta= 0.50
     Davidson diagonalization with overlap
     ethr =  3.60E-12,  avg # of iterations =  2.8

     total cpu time spent up to now is     2221.1 secs

     End of self-consistent calculation

          k = 0.0000 0.0000 0.0000 (  2223 PWs)   bands (ev):

   -13.5955 -10.0541  -9.7678  -8.4628  -4.6095  -2.0404  -1.6569  -0.1583
     0.7436   2.6019   2.9583   3.5849   4.3118   4.3587   4.5368   6.6223
     8.6350   8.8124  11.4299  13.2160

          k =-0.0007-0.0002 0.4877 (  2215 PWs)   bands (ev):

   -12.8604  -9.3770  -9.0969  -7.8104  -4.2823  -1.9516  -1.2946  -1.2799
    -0.5252   0.4539   1.4456   1.5094   3.1488   3.9836   4.9341   6.7837
     8.6261   9.2282  10.9111  14.0956

          k =-0.0013-0.0004 0.9753 (  2211 PWs)   bands (ev):

   -10.6925  -7.4385  -7.3938  -7.1318  -5.5197  -3.9757  -3.7380  -2.4346
    -1.8951   0.4798   0.5982   1.1994   1.2057   3.5017   6.1579   6.8324
     6.9404   8.8103  10.3514  14.3192

          k =-0.1137-0.6189-0.0000 (  2218 PWs)   bands (ev):

   -13.0128 -11.8229  -9.8171  -6.2467  -4.4639  -3.7571  -0.4500   0.3608
     1.1891   1.7528   2.2751   2.6176   2.9654   4.5380   5.2291   7.1179
     8.3888   9.5390  12.1995  12.9116

          k =-0.1144-0.6191 0.4876 (  2216 PWs)   bands (ev):

   -12.2809 -11.1111  -9.1611  -5.6259  -4.1000  -3.3090  -1.5785  -0.8622
     0.1689   0.2469   1.2435   1.9744   2.7148   2.9846   5.0243   6.7250
     8.4084   9.6786  11.5709  14.0654

          k =-0.1150-0.6193 0.9753 (  2221 PWs)   bands (ev):

   -10.1254  -9.0514  -7.3049  -6.6684  -5.3160  -3.9598  -3.7859  -1.6521
    -0.9871  -0.7890   0.4587   0.9859   2.4066   2.9015   6.2770   6.4548
     6.8208   8.9237   9.9012  13.4782

          k =-0.5486-0.0700 0.0006 (  2210 PWs)   bands (ev):

   -13.5659 -10.1361  -9.8038  -8.4616  -4.5619  -1.6277  -1.5948  -0.1425
     0.7533   2.5869   3.0988   3.2214   3.5852   4.3108   4.7705   6.3028
     7.7020   9.5357  11.8949  13.2374

          k =-0.5493-0.0702 0.4883 (  2208 PWs)   bands (ev):

   -12.8315  -9.4598  -9.1259  -7.8079  -4.2433  -1.9299  -1.2904  -0.8924
    -0.4891   0.4239   1.4550   1.5279   3.2403   3.7504   4.3422   6.5357
     8.2866   9.3913  11.1666  14.3677

          k =-0.5499-0.0704 0.9759 (  2218 PWs)   bands (ev):

   -10.6657  -7.5233  -7.3686  -7.1445  -5.5214  -4.0414  -3.7344  -2.4383
    -1.8473   0.4836   0.7719   1.2121   1.2735   3.9963   5.2913   6.7018
     7.4427   8.7657   9.7054  13.9454

          k =-0.6623-0.6889 0.0006 (  2218 PWs)   bands (ev):

   -12.9900 -11.8224  -9.8761  -6.3582  -4.3020  -3.7586  -0.3001   0.6091
     1.1955   1.8979   2.2727   2.6147   3.1261   3.4716   5.2201   7.6367
     7.6584   9.5150  12.4718  12.4819

          k =-0.6630-0.6891 0.4882 (  2215 PWs)   bands (ev):

   -12.2584 -11.1107  -9.2176  -5.7287  -3.9798  -3.3102  -1.5155  -0.8508
     0.1529   0.3493   1.4723   2.0181   2.7593   3.1173   4.1112   7.1803
     7.7818   9.6151  11.8876  13.6998

          k =-0.6637-0.6893 0.9759 (  2215 PWs)   bands (ev):

   -10.1033  -9.0510  -7.3596  -6.6498  -5.3108  -3.9829  -3.8642  -1.5576
    -0.9940  -0.8288   0.4983   0.9965   2.4603   3.2957   5.5112   6.6396
     7.0573   9.2935   9.3914  13.6368

     the Fermi energy is     7.0011 ev

!    total energy              =     -90.64415371 Ry
     Harris-Foulkes estimate   =     -90.64415371 Ry
     estimated scf accuracy    <          4.3E-11 Ry

     The total energy is the sum of the following terms:

     one-electron contribution =     -47.70185951 Ry
     hartree contribution      =      40.00197546 Ry
     xc contribution           =     -27.84549410 Ry
     ewald contribution        =     -55.09996001 Ry
     smearing contrib. (-TS)   =       0.00118446 Ry

     convergence has been achieved in  12 iterations

     Forces acting on atoms (cartesian axes, Ry/au):

     atom    1 type  1   force =    -0.01290955    0.00689624    0.00001061
     atom    2 type  1   force =    -0.01290272   -0.00013156   -0.00003263
     atom    3 type  1   force =     0.02304430    0.00544004   -0.00006609
     atom    4 type  1   force =     0.01308324   -0.00691565    0.00009826
     atom    5 type  1   force =    -0.02327874   -0.00542254    0.00007361
     atom    6 type  1   force =    -0.00164789   -0.00103870   -0.00009231
     atom    7 type  1   force =     0.01320552    0.00032091    0.00002978
     atom    8 type  1   force =     0.00140583    0.00085125   -0.00002124

     Total force =     0.043734     Total SCF correction =     0.000008


     Computing stress (Cartesian axis) and pressure

          total   stress  (Ry/bohr**3)                   (kbar)     P=       13.38
   0.00026712  -0.00001688  -0.00000082           39.29       -2.48       -0.12
  -0.00001688  -0.00002661   0.00000050           -2.48       -3.91        0.07
  -0.00000082   0.00000050   0.00003245           -0.12        0.07        4.77


     number of scf cycles    =  34
     number of bfgs steps    =  33

     enthalpy old            =     -90.6438096200 Ry
     enthalpy new            =     -90.6441218774 Ry

     CASE: enthalpy_new < enthalpy_old


     WARNING: bfgs curvature condition failed, Theta= 0.972
     new trust radius        =       0.0835400632 bohr
     new conv_thr            =       0.0000000003 Ry

     new unit-cell volume =    462.07988 a.u.^3 (    68.47317 Ang^3 )
     density =      2.32809 g/cm^3

CELL_PARAMETERS (bohr)
  10.652972087  -2.162360499   0.014964774
  -1.359735955   9.482191307   0.002119637
   0.005833398  -0.001255835   4.711585910

ATOMIC_POSITIONS (crystal)
C             0.7652841515        0.7746324687        0.3671543701
C             0.6407044263        0.6327222633        0.8678601468
C             0.9920669238        0.6679861942        0.3659980242
C             0.8099411012        0.1007097126        0.3666986363
C             0.5833200967        0.2074517972        0.3679587780
C             1.0215626233        0.5369696088        0.8657237368
C             0.9344763821        0.2426564095        0.8660312323
C             0.5538302952        0.3384605457        0.8682500754



     Writing output data file ./pp.save/
     NEW-OLD atomic charge density approx. for the potential
     extrapolated charge   31.57535, renormalised to   32.00000

     total cpu time spent up to now is     2221.5 secs

     Self-consistent Calculation

     iteration #  1     ecut=    40.00 Ry     beta= 0.50
     Davidson diagonalization with overlap
     ethr =  1.00E-06,  avg # of iterations =  8.6

     total cpu time spent up to now is     2256.4 secs

     total energy              =     -90.63016417 Ry
     Harris-Foulkes estimate   =     -91.18139060 Ry
     estimated scf accuracy    <       0.01219808 Ry

     iteration #  2     ecut=    40.00 Ry     beta= 0.50
     Davidson diagonalization with overlap
     ethr =  3.81E-05,  avg # of iterations =  3.8

     total cpu time spent up to now is     2273.3 secs

     total energy              =     -90.64430147 Ry
     Harris-Foulkes estimate   =     -90.65134608 Ry
     estimated scf accuracy    <       0.02148658 Ry

     iteration #  3     ecut=    40.00 Ry     beta= 0.50
     Davidson diagonalization with overlap
     ethr =  3.81E-05,  avg # of iterations =  2.2

     total cpu time spent up to now is     2284.3 secs

     total energy              =     -90.64447673 Ry
     Harris-Foulkes estimate   =     -90.64582119 Ry
     estimated scf accuracy    <       0.00408568 Ry

     iteration #  4     ecut=    40.00 Ry     beta= 0.50
     Davidson diagonalization with overlap
     ethr =  1.28E-05,  avg # of iterations =  2.6

     total cpu time spent up to now is     2296.1 secs

     total energy              =     -90.64433224 Ry
     Harris-Foulkes estimate   =     -90.64481174 Ry
     estimated scf accuracy    <       0.00088822 Ry

     iteration #  5     ecut=    40.00 Ry     beta= 0.50
     Davidson diagonalization with overlap
     ethr =  2.78E-06,  avg # of iterations =  3.3

     total cpu time spent up to now is     2311.1 secs

     total energy              =     -90.64460649 Ry
     Harris-Foulkes estimate   =     -90.64464728 Ry
     estimated scf accuracy    <       0.00019009 Ry

     iteration #  6     ecut=    40.00 Ry     beta= 0.50
     Davidson diagonalization with overlap
     ethr =  5.94E-07,  avg # of iterations =  1.3

     total cpu time spent up to now is     2320.0 secs

     total energy              =     -90.64459589 Ry
     Harris-Foulkes estimate   =     -90.64463700 Ry
     estimated scf accuracy    <       0.00011991 Ry

     iteration #  7     ecut=    40.00 Ry     beta= 0.50
     Davidson diagonalization with overlap
     ethr =  3.75E-07,  avg # of iterations =  2.0

     total cpu time spent up to now is     2331.3 secs

     total energy              =     -90.64461399 Ry
     Harris-Foulkes estimate   =     -90.64461443 Ry
     estimated scf accuracy    <       0.00000175 Ry

     iteration #  8     ecut=    40.00 Ry     beta= 0.50
     Davidson diagonalization with overlap
     ethr =  5.47E-09,  avg # of iterations =  3.0

     total cpu time spent up to now is     2345.7 secs

     total energy              =     -90.64461445 Ry
     Harris-Foulkes estimate   =     -90.64461473 Ry
     estimated scf accuracy    <       0.00000054 Ry

     iteration #  9     ecut=    40.00 Ry     beta= 0.50
     Davidson diagonalization with overlap
