
     Program PWSCF v.6.5 starts on 10Jul2022 at  6:55:34 

     This program is part of the open-source Quantum ESPRESSO suite
     for quantum simulation of materials; please cite
         "P. Giannozzi et al., J. Phys.:Condens. Matter 21 395502 (2009);
         "P. Giannozzi et al., J. Phys.:Condens. Matter 29 465901 (2017);
          URL http://www.quantum-espresso.org", 
     in publications or presentations arising from this work. More details at
     http://www.quantum-espresso.org/quote

     Parallel version (MPI), running on    96 processors

     MPI processes distributed on     2 nodes
     R & G space division:  proc/nbgrp/npool/nimage =      96
     Waiting for input...
     Reading input from standard input
     Message from routine read_cards :
     DEPRECATED: no units specified in CELL_PARAMETERS card

     Current dimensions of program PWSCF are:
     Max number of different atomic species (ntypx) = 10
     Max number of k-points (npk) =  40000
     Max angular momentum in pseudopotentials (lmaxx) =  3

     Subspace diagonalization in iterative solution of the eigenvalue problem:
     one sub-group per band group will be used
     scalapack distributed-memory algorithm (size of sub-group:  9*  9 procs)

 
     Parallelization info
     --------------------
     sticks:   dense  smooth     PW     G-vecs:    dense   smooth      PW
     Min          16      16      5                  201      201      35
     Max          17      17      6                  203      203      37
     Sum        1551    1551    493                19381    19381    3447
 


     bravais-lattice index     =            0
     lattice parameter (alat)  =      14.6946  a.u.
     unit-cell volume          =     566.5831 (a.u.)^3
     number of atoms/cell      =            8
     number of atomic types    =            1
     number of electrons       =        32.00
     number of Kohn-Sham states=           20
     kinetic-energy cutoff     =      40.0000  Ry
     charge density cutoff     =     160.0000  Ry
     convergence threshold     =      1.0E-06
     mixing beta               =       0.5000
     number of iterations used =            8  plain     mixing
     Exchange-correlation=  SLA  PW   PBE  PBE
                           (   1   4   3   4   0   0   0)
     nstep                     =          250


     celldm(1)=  14.694575  celldm(2)=   0.000000  celldm(3)=   0.000000
     celldm(4)=   0.000000  celldm(5)=   0.000000  celldm(6)=   0.000000

     crystal axes: (cart. coord. in units of alat)
               a(1) = (   0.998008   0.063091   0.000000 )  
               a(2) = (   0.030508   0.565882   0.000068 )  
               a(3) = (   0.000286   0.000340   0.317260 )  

     reciprocal axes: (cart. coord. in units 2 pi/alat)
               b(1) = (  1.005423 -0.054204 -0.000848 )  
               b(2) = ( -0.112097  1.773195 -0.001801 )  
               b(3) = (  0.000024 -0.000380  3.151990 )  


     PseudoPot. # 1 for C  read from file:
     ./C.pbe-van_bm.upf
     MD5 check sum: 1a69bf6b8db32088f5b2163dbdb77a27
     Pseudo is Ultrasoft, Zval =  4.0
     Generated by new atomic code, or converted to UPF format
     Using radial grid of  721 points,  4 beta functions with: 
                l(1) =   0
                l(2) =   0
                l(3) =   1
                l(4) =   1
     Q(r) pseudized with  8 coefficients,  rinner =    0.800   0.800   0.800


     atomic species   valence    mass     pseudopotential
        C              4.00    12.00000     C ( 1.00)

     No symmetry found



   Cartesian axes

     site n.     atom                  positions (alat units)
         1           C   tau(   1) = (   0.6176843   0.3150576   0.1007494  )
         2           C   tau(   2) = (   0.7944547   0.2964573   0.0822416  )
         3           C   tau(   3) = (   0.5279467   0.3362477   0.2626437  )
         4           C   tau(   4) = (   0.8850963   0.2787714   0.2376463  )
         5           C   tau(   5) = (   0.1639767   0.0349090   0.1706685  )
         6           C   tau(   6) = (   0.2250277  -0.0385313   0.3285857  )
         7           C   tau(   7) = (   0.0512490   0.1647926   0.2069516  )
         8           C   tau(   8) = (   0.3674247   0.3968462   0.2931272  )

     number of k points=    12  Marzari-Vanderbilt smearing, width (Ry)=  0.0200
                       cart. coord. in units 2pi/alat
        k(    1) = (   0.0000000   0.0000000   0.0000000), wk =   0.1250000
        k(    2) = (   0.0000060  -0.0000951   0.7879975), wk =   0.2500000
        k(    3) = (  -0.0000120   0.0001902  -1.5759950), wk =   0.1250000
        k(    4) = (   0.0560483  -0.8865977   0.0009004), wk =   0.1250000
        k(    5) = (   0.0560543  -0.8866928   0.7888979), wk =   0.2500000
        k(    6) = (   0.0560363  -0.8864076  -1.5750946), wk =   0.1250000
        k(    7) = (  -0.5027114   0.0271021   0.0004238), wk =   0.1250000
        k(    8) = (  -0.5027054   0.0270070   0.7884213), wk =   0.2500000
        k(    9) = (  -0.5027235   0.0272923  -1.5755711), wk =   0.1250000
        k(   10) = (  -0.4466632  -0.8594956   0.0013242), wk =   0.1250000
        k(   11) = (  -0.4466571  -0.8595907   0.7893217), wk =   0.2500000
        k(   12) = (  -0.4466752  -0.8593054  -1.5746707), wk =   0.1250000

     Dense  grid:    19381 G-vectors     FFT dimensions: (  60,  36,  20)

     Estimated max dynamical RAM per process >       2.60 MB

     Estimated total dynamical RAM >     249.57 MB

     Initial potential from superposition of free atoms

     starting charge   31.99968, renormalised to   32.00000
     Starting wfcs are   32 randomized atomic wfcs

     total cpu time spent up to now is        1.8 secs

     Self-consistent Calculation

     iteration #  1     ecut=    40.00 Ry     beta= 0.50
     Davidson diagonalization with overlap
     ethr =  1.00E-02,  avg # of iterations =  2.2

     total cpu time spent up to now is        2.4 secs

     total energy              =     -90.56739915 Ry
     Harris-Foulkes estimate   =     -90.96516140 Ry
     estimated scf accuracy    <       0.78426856 Ry

     iteration #  2     ecut=    40.00 Ry     beta= 0.50
     Davidson diagonalization with overlap
     ethr =  2.45E-03,  avg # of iterations =  2.0

     total cpu time spent up to now is        3.1 secs

     total energy              =     -90.61102261 Ry
     Harris-Foulkes estimate   =     -90.65742826 Ry
     estimated scf accuracy    <       0.09105616 Ry

     iteration #  3     ecut=    40.00 Ry     beta= 0.50
     Davidson diagonalization with overlap
     ethr =  2.85E-04,  avg # of iterations =  3.9

     total cpu time spent up to now is        3.9 secs

     total energy              =     -90.61591439 Ry
     Harris-Foulkes estimate   =     -90.64594033 Ry
     estimated scf accuracy    <       0.08054219 Ry

     iteration #  4     ecut=    40.00 Ry     beta= 0.50
     Davidson diagonalization with overlap
     ethr =  2.52E-04,  avg # of iterations =  2.8

     total cpu time spent up to now is        4.5 secs

     total energy              =     -90.62610201 Ry
     Harris-Foulkes estimate   =     -90.63627987 Ry
     estimated scf accuracy    <       0.04352513 Ry

     iteration #  5     ecut=    40.00 Ry     beta= 0.50
     Davidson diagonalization with overlap
     ethr =  1.36E-04,  avg # of iterations =  1.2

     total cpu time spent up to now is        5.0 secs

     total energy              =     -90.63047161 Ry
     Harris-Foulkes estimate   =     -90.63436129 Ry
     estimated scf accuracy    <       0.02121954 Ry

     iteration #  6     ecut=    40.00 Ry     beta= 0.50
     Davidson diagonalization with overlap
     ethr =  6.63E-05,  avg # of iterations =  1.2

     total cpu time spent up to now is        5.4 secs

     total energy              =     -90.63249464 Ry
     Harris-Foulkes estimate   =     -90.63276798 Ry
     estimated scf accuracy    <       0.00105830 Ry

     iteration #  7     ecut=    40.00 Ry     beta= 0.50
     Davidson diagonalization with overlap
     ethr =  3.31E-06,  avg # of iterations =  5.2

     total cpu time spent up to now is        6.3 secs

     total energy              =     -90.63267168 Ry
     Harris-Foulkes estimate   =     -90.63267840 Ry
     estimated scf accuracy    <       0.00006584 Ry

     iteration #  8     ecut=    40.00 Ry     beta= 0.50
     Davidson diagonalization with overlap
     ethr =  2.06E-07,  avg # of iterations =  2.1

     total cpu time spent up to now is        6.9 secs

     total energy              =     -90.63268016 Ry
     Harris-Foulkes estimate   =     -90.63268186 Ry
     estimated scf accuracy    <       0.00000718 Ry

     iteration #  9     ecut=    40.00 Ry     beta= 0.50
     Davidson diagonalization with overlap
     ethr =  2.24E-08,  avg # of iterations =  2.8

     total cpu time spent up to now is        7.5 secs

     total energy              =     -90.63268158 Ry
     Harris-Foulkes estimate   =     -90.63268186 Ry
     estimated scf accuracy    <       0.00000101 Ry

     iteration # 10     ecut=    40.00 Ry     beta= 0.50
     Davidson diagonalization with overlap
     ethr =  3.15E-09,  avg # of iterations =  2.2

     total cpu time spent up to now is        8.1 secs

     End of self-consistent calculation

          k = 0.0000 0.0000 0.0000 (  2449 PWs)   bands (ev):

   -14.3707 -13.1949 -12.5873  -8.7030  -8.6800  -3.8667  -2.8258  -1.9300
    -0.8724  -0.6922  -0.4885  -0.2216   0.5786   1.0034   3.7282   4.6975
     7.1548   8.6359   9.1029  10.1710

          k = 0.0000-0.0001 0.7880 (  2411 PWs)   bands (ev):

   -13.2935 -12.1422 -11.5723  -7.9773  -7.8474  -4.5225  -4.0044  -3.5874
    -2.7303  -1.8897  -0.7320  -0.6638   0.4463   0.6513   3.7482   5.0850
     5.2943   6.3638   9.3694  10.0338

          k =-0.0000 0.0002-1.5760 (  2410 PWs)   bands (ev):

   -10.6223 -10.3787  -9.1865  -9.1012  -8.1720  -7.4275  -5.4473  -5.1100
    -3.7925  -3.3551  -2.0237   1.7619   1.9217   2.6121   3.5411   3.6166
     4.5670   5.1806   7.4952   7.9365

          k = 0.0560-0.8866 0.0009 (  2420 PWs)   bands (ev):

   -14.1576 -13.6483 -11.8101 -10.3994  -6.7689  -5.4822  -2.3048  -2.2022
    -1.4024  -0.8522  -0.2958   0.2579   0.8563   1.0843   3.1365   6.1047
     7.6158   8.2872   9.5070  11.5154

          k = 0.0561-0.8867 0.7889 (  2413 PWs)   bands (ev):

   -13.0840 -12.6008 -10.8003  -9.5033  -6.2087  -5.2513  -4.2752  -3.3745
    -2.7944  -1.3950  -1.1162  -0.9491  -0.8843   2.2555   3.4315   4.6876
     5.8013   7.1942   8.2928  10.9787

          k = 0.0560-0.8864-1.5751 (  2406 PWs)   bands (ev):

   -10.5353 -10.1734  -9.8495  -8.5432  -8.0928  -7.1424  -6.4904  -4.8505
    -3.7079  -2.8051  -2.4078   1.1308   1.8551   2.2875   2.9852   4.2219
     4.5796   5.2846   7.3745   8.7896

          k =-0.5027 0.0271 0.0004 (  2432 PWs)   bands (ev):

   -14.1745 -13.7949 -11.7528 -10.2620  -6.7594  -5.5045  -1.9660  -1.4853
    -1.1874  -0.8570  -0.2512   0.1971   0.6303   0.8870   2.0124   6.4597
     7.7022   8.2136   9.0821   9.4812

          k =-0.5027 0.0270 0.7884 (  2428 PWs)   bands (ev):

   -13.0991 -12.7365 -10.7472  -9.3864  -6.2044  -5.2635  -4.2935  -3.3872
    -2.7967  -1.4131  -0.9490  -0.7384   0.0214   1.8376   2.5603   4.7775
     5.9209   7.2997   8.2431  10.4573

          k =-0.5027 0.0273-1.5756 (  2434 PWs)   bands (ev):

   -10.6080 -10.1799  -9.8975  -8.6010  -8.0462  -7.1222  -6.4107  -4.7972
    -3.7369  -2.7704  -2.4040   1.7941   1.8807   2.4983   3.0556   4.0410
     4.8772   5.0667   7.4878   7.9728

          k =-0.4467-0.8595 0.0013 (  2410 PWs)   bands (ev):

   -14.2852 -13.1496 -12.6092  -8.8535  -8.7345  -3.7856  -2.8075  -2.6893
    -0.9757  -0.8565  -0.3416  -0.1769   0.5870   1.0074   4.8480   4.9161
     7.1104   9.0952   9.4095  11.2050

          k =-0.4467-0.8596 0.7893 (  2421 PWs)   bands (ev):

   -13.2136 -12.1012 -11.5932  -8.0763  -7.9151  -4.5143  -3.9737  -3.5421
    -2.7163  -1.8397  -1.5610  -0.6877   0.2682   0.7928   4.1738   5.1929
     5.6598   6.4186   8.9745  10.2574

          k =-0.4467-0.8593-1.5747 (  2420 PWs)   bands (ev):

   -10.5277 -10.3571  -9.2000  -9.1173  -8.1294  -7.4222  -5.5244  -5.1423
    -3.8016  -3.4477  -1.9937   1.1112   1.7333   2.5328   3.5727   3.7528
     4.8312   4.8382   7.2276   8.8786

     the Fermi energy is     5.0351 ev

!    total energy              =     -90.63268178 Ry
     Harris-Foulkes estimate   =     -90.63268185 Ry
     estimated scf accuracy    <       0.00000018 Ry

     The total energy is the sum of the following terms:

     one-electron contribution =     -49.19220506 Ry
     hartree contribution      =      38.20551308 Ry
     xc contribution           =     -27.77487230 Ry
     ewald contribution        =     -51.87091704 Ry
     smearing contrib. (-TS)   =      -0.00020046 Ry

     convergence has been achieved in  10 iterations

     Forces acting on atoms (cartesian axes, Ry/au):

     atom    1 type  1   force =     0.00754805    0.00375286   -0.01066053
     atom    2 type  1   force =    -0.00840574   -0.00360514    0.01108970
     atom    3 type  1   force =     0.01695658   -0.01777950   -0.00339207
     atom    4 type  1   force =    -0.01697397    0.01547847    0.00248466
     atom    5 type  1   force =    -0.01775355    0.02077370    0.03779586
     atom    6 type  1   force =     0.01917072   -0.02155796   -0.03732331
     atom    7 type  1   force =     0.03271588   -0.01823067   -0.01016103
     atom    8 type  1   force =    -0.03325797    0.02116824    0.01016672

     Total force =     0.095417     Total SCF correction =     0.000671


     Computing stress (Cartesian axis) and pressure

          total   stress  (Ry/bohr**3)                   (kbar)     P=       71.88
   0.00121513  -0.00051734   0.00153183          178.75      -76.10      225.34
  -0.00051734   0.00020057  -0.00079380          -76.10       29.50     -116.77
   0.00153183  -0.00079380   0.00005020          225.34     -116.77        7.38


     BFGS Geometry Optimization

     number of scf cycles    =   1
     number of bfgs steps    =   0

     enthalpy new            =     -90.6326432596 Ry

     new trust radius        =       0.2407086687 bohr
     new conv_thr            =       0.0000010000 Ry

     new unit-cell volume =    586.30686 a.u.^3 (    86.88171 Ang^3 )
     density =      1.83481 g/cm^3

CELL_PARAMETERS (bohr)
  15.098790830   0.742073012   0.543221596
   0.354408610   8.351263604  -0.146849010
   0.182798063  -0.087546183   4.667904517

ATOMIC_POSITIONS (crystal)
C             0.6043742198        0.4896335847        0.3151692293
C             0.7820615265        0.4361007307        0.2615098238
C             0.5135869716        0.5343046095        0.8270078891
C             0.8733653787        0.3966689685        0.7495065311
C             0.1615354692        0.0458495642        0.5460426534
C             0.2294513613       -0.0968830695        1.0277137304
C             0.0447252989        0.2836437780        0.6500689814
C             0.3453037741        0.6647778339        0.9259721616



     Writing output data file ./pp.save/
     NEW-OLD atomic charge density approx. for the potential
     extrapolated charge   33.07649, renormalised to   32.00000

     total cpu time spent up to now is        8.2 secs

     Self-consistent Calculation

     iteration #  1     ecut=    40.00 Ry     beta= 0.50
     Davidson diagonalization with overlap
     c_bands:  1 eigenvalues not converged
     ethr =  1.00E-06,  avg # of iterations = 10.2

     total cpu time spent up to now is       10.5 secs

     total energy              =     -90.65891030 Ry
     Harris-Foulkes estimate   =     -89.38757249 Ry
     estimated scf accuracy    <       0.03828965 Ry

     iteration #  2     ecut=    40.00 Ry     beta= 0.50
     Davidson diagonalization with overlap
     ethr =  1.20E-04,  avg # of iterations =  4.7

     total cpu time spent up to now is       11.6 secs

     total energy              =     -90.69918283 Ry
     Harris-Foulkes estimate   =     -90.71409961 Ry
     estimated scf accuracy    <       0.04151806 Ry

     iteration #  3     ecut=    40.00 Ry     beta= 0.50
     Davidson diagonalization with overlap
     ethr =  1.20E-04,  avg # of iterations =  2.2

     total cpu time spent up to now is       12.2 secs

     total energy              =     -90.69898859 Ry
     Harris-Foulkes estimate   =     -90.70934225 Ry
     estimated scf accuracy    <       0.05584148 Ry

     iteration #  4     ecut=    40.00 Ry     beta= 0.50
     Davidson diagonalization with overlap
     ethr =  1.20E-04,  avg # of iterations =  1.1

     total cpu time spent up to now is       12.6 secs

     total energy              =     -90.70296793 Ry
     Harris-Foulkes estimate   =     -90.70577322 Ry
     estimated scf accuracy    <       0.01524771 Ry

     iteration #  5     ecut=    40.00 Ry     beta= 0.50
     Davidson diagonalization with overlap
     ethr =  4.76E-05,  avg # of iterations =  1.0

     total cpu time spent up to now is       13.1 secs

     total energy              =     -90.70292952 Ry
     Harris-Foulkes estimate   =     -90.70424548 Ry
     estimated scf accuracy    <       0.00295753 Ry

     iteration #  6     ecut=    40.00 Ry     beta= 0.50
     Davidson diagonalization with overlap
     ethr =  9.24E-06,  avg # of iterations =  2.6

     total cpu time spent up to now is       13.8 secs

     total energy              =     -90.70322950 Ry
     Harris-Foulkes estimate   =     -90.70338789 Ry
     estimated scf accuracy    <       0.00042156 Ry

     iteration #  7     ecut=    40.00 Ry     beta= 0.50
     Davidson diagonalization with overlap
     ethr =  1.32E-06,  avg # of iterations =  3.1

     total cpu time spent up to now is       14.5 secs

     total energy              =     -90.70330969 Ry
     Harris-Foulkes estimate   =     -90.70331288 Ry
     estimated scf accuracy    <       0.00001242 Ry

     iteration #  8     ecut=    40.00 Ry     beta= 0.50
     Davidson diagonalization with overlap
     ethr =  3.88E-08,  avg # of iterations =  3.2

     total cpu time spent up to now is       15.3 secs

     total energy              =     -90.70331384 Ry
     Harris-Foulkes estimate   =     -90.70331514 Ry
     estimated scf accuracy    <       0.00000386 Ry

     iteration #  9     ecut=    40.00 Ry     beta= 0.50
     Davidson diagonalization with overlap
     ethr =  1.21E-08,  avg # of iterations =  2.2

     total cpu time spent up to now is       15.9 secs

     End of self-consistent calculation

          k = 0.0000 0.0000 0.0000 (  2449 PWs)   bands (ev):

   -14.2991 -13.2615 -12.4973  -9.1212  -8.6222  -4.1915  -3.4447  -1.9761
    -0.8947  -0.8570  -0.5688  -0.3325   0.3425   0.9170   3.0887   4.4962
     7.0058   8.3928   9.1888   9.3807

          k =-0.0291 0.0151 0.7884 (  2411 PWs)   bands (ev):

   -13.2110 -12.2270 -11.4403  -8.5110  -7.7091  -4.7140  -4.0392  -3.5584
    -2.9990  -2.2115  -1.0076  -0.7676   0.1238   0.7037   3.1351   4.5385
     5.0406   5.9387   8.7773   9.7969

          k = 0.0582-0.0302-1.5768 (  2410 PWs)   bands (ev):

   -10.4154 -10.0504  -9.7467  -9.0930  -8.2385  -7.4212  -5.4671  -5.4504
    -3.6427  -3.6162  -2.5051   1.5808   1.8286   2.2667   2.9262   2.9900
     4.3599   4.7386   7.1551   7.8122

          k = 0.0440-0.8820-0.0183 (  2420 PWs)   bands (ev):

   -14.1105 -13.5972 -11.8442 -10.5094  -6.9634  -5.9131  -2.3843  -2.2814
    -1.8825  -0.8840  -0.7512   0.3073   0.6959   0.8539   2.8040   5.8025
     7.3159   8.4824   8.8786  10.7950

          k = 0.0149-0.8669 0.7702 (  2413 PWs)   bands (ev):

   -13.0374 -12.5272 -10.8498  -9.6064  -6.5666  -5.3982  -4.3363  -3.2321
    -2.8773  -1.9000  -1.3237  -1.2209  -0.9298   1.8489   3.2099   4.1963
     5.2802   6.7576   7.9459  10.5174

          k = 0.1022-0.9122-1.5951 (  2406 PWs)   bands (ev):

   -10.1531 -10.0923  -9.9793  -8.9211  -8.2143  -7.2473  -6.3640  -4.9508
    -3.7375  -3.3032  -2.6901   1.1513   1.5442   2.0083   2.5590   3.3616
     4.2163   4.9659   7.0260   8.5410

          k =-0.4884 0.0211 0.0195 (  2432 PWs)   bands (ev):

   -14.1296 -13.7469 -11.7937 -10.3585  -6.9648  -5.9236  -2.0266  -1.9585
    -1.3058  -0.8890  -0.6644   0.2799   0.4102   0.7737   1.6417   6.0360
     7.3791   8.3765   8.8048   8.8876

          k =-0.5175 0.0362 0.8079 (  2428 PWs)   bands (ev):

   -13.0590 -12.6614 -10.8010  -9.4818  -6.5701  -5.3975  -4.3573  -3.2351
    -2.9002  -1.8969  -1.3105  -0.8170  -0.0414   1.4275   2.3888   4.3064
     5.3650   6.7508   7.8448  10.1962

          k =-0.4301-0.0091-1.5573 (  2434 PWs)   bands (ev):

   -10.2023 -10.1652  -9.9984  -8.9571  -8.1687  -7.2390  -6.2870  -4.8786
    -3.7544  -3.3065  -2.6732   1.5410   1.8413   2.2583   2.5783   3.3166
     4.5057   4.6665   7.1642   7.8378

          k =-0.4443-0.8609 0.0013 (  2410 PWs)   bands (ev):

   -14.2152 -13.2080 -12.5170  -9.2810  -8.6720  -4.1082  -3.3218  -2.8461
    -1.1876  -0.8844  -0.4943  -0.2889   0.3617   0.9217   4.2507   4.7568
     6.9551   8.7188   9.2029  10.5861

          k =-0.4735-0.8458 0.7897 (  2421 PWs)   bands (ev):

   -13.1330 -12.1786 -11.4588  -8.6201  -7.7688  -4.6958  -4.0104  -3.5167
    -2.9774  -2.1848  -1.6145  -1.0079  -0.0686   0.7839   3.6353   4.5317
     5.3896   6.1152   8.4189   9.9704

          k =-0.3861-0.8911-1.5756 (  2420 PWs)   bands (ev):

   -10.3210 -10.0179  -9.7482  -9.0940  -8.2267  -7.4164  -5.5509  -5.5176
    -3.6908  -3.6227  -2.4719   1.0812   1.6361   2.0414   2.9456   2.9538
     4.5238   4.6314   6.9193   8.5962

     the Fermi energy is     4.6178 ev

!    total energy              =     -90.70331435 Ry
     Harris-Foulkes estimate   =     -90.70331444 Ry
     estimated scf accuracy    <       0.00000034 Ry

     The total energy is the sum of the following terms:

     one-electron contribution =     -48.40949182 Ry
     hartree contribution      =      37.46847482 Ry
     xc contribution           =     -27.56114849 Ry
     ewald contribution        =     -52.20010229 Ry
     smearing contrib. (-TS)   =      -0.00104657 Ry

     convergence has been achieved in   9 iterations

     Forces acting on atoms (cartesian axes, Ry/au):

     atom    1 type  1   force =    -0.00699952    0.01297363   -0.04462837
     atom    2 type  1   force =     0.00701265   -0.01126896    0.04264046
     atom    3 type  1   force =    -0.01021028    0.00676720    0.06485516
     atom    4 type  1   force =     0.00855849   -0.00385700   -0.06293207
     atom    5 type  1   force =    -0.00251004   -0.00063769    0.03343373
     atom    6 type  1   force =     0.00129713    0.00299607   -0.03235863
     atom    7 type  1   force =    -0.04781834   -0.01066330   -0.00133156
     atom    8 type  1   force =     0.05066990    0.00369005    0.00032129

     Total force =     0.140619     Total SCF correction =     0.000634


     Computing stress (Cartesian axis) and pressure

          total   stress  (Ry/bohr**3)                   (kbar)     P=      -22.03
  -0.00015603  -0.00002272   0.00042690          -22.95       -3.34       62.80
  -0.00002272  -0.00006491  -0.00031840           -3.34       -9.55      -46.84
   0.00042690  -0.00031840  -0.00022837           62.80      -46.84      -33.59


     number of scf cycles    =   2
     number of bfgs steps    =   1

     enthalpy old            =     -90.6326432596 Ry
     enthalpy new            =     -90.7032744915 Ry

     CASE: enthalpy_new < enthalpy_old

     new trust radius        =       0.1500710684 bohr
     new conv_thr            =       0.0000006486 Ry

     new unit-cell volume =    581.85918 a.u.^3 (    86.22263 Ang^3 )
     density =      1.84884 g/cm^3

CELL_PARAMETERS (bohr)
  15.158263049   0.675823119   0.902772805
   0.317808933   8.343729443  -0.271660279
   0.303820236  -0.164351300   4.632660497

ATOMIC_POSITIONS (crystal)
C             0.6037098835        0.4919308352        0.3025195841
C             0.7826920519        0.4340722731        0.2736551757
C             0.5132643520        0.5344835105        0.8437587666
C             0.8735369152        0.3968483116        0.7331693055
C             0.1610173650        0.0465088728        0.5574313093
C             0.2298862880       -0.0972138119        1.0166165499
C             0.0413698574        0.2818310093        0.6485959907
C             0.3489272870        0.6656349994        0.9272443183



     Writing output data file ./pp.save/
     NEW-OLD atomic charge density approx. for the potential
     extrapolated charge   31.75540, renormalised to   32.00000

     total cpu time spent up to now is       16.0 secs

     Self-consistent Calculation

     iteration #  1     ecut=    40.00 Ry     beta= 0.50
     Davidson diagonalization with overlap
     ethr =  1.00E-06,  avg # of iterations = 11.4

     total cpu time spent up to now is       19.5 secs

     total energy              =     -90.71827751 Ry
     Harris-Foulkes estimate   =     -91.02084702 Ry
     estimated scf accuracy    <       0.00601978 Ry

     iteration #  2     ecut=    40.00 Ry     beta= 0.50
     Davidson diagonalization with overlap
     ethr =  1.88E-05,  avg # of iterations =  2.9

     total cpu time spent up to now is       20.4 secs

     total energy              =     -90.72078258 Ry
     Harris-Foulkes estimate   =     -90.72180356 Ry
     estimated scf accuracy    <       0.00248369 Ry

     iteration #  3     ecut=    40.00 Ry     beta= 0.50
     Davidson diagonalization with overlap
     ethr =  7.76E-06,  avg # of iterations =  3.2

     total cpu time spent up to now is       21.2 secs

     total energy              =     -90.72061470 Ry
     Harris-Foulkes estimate   =     -90.72172828 Ry
     estimated scf accuracy    <       0.00525017 Ry

     iteration #  4     ecut=    40.00 Ry     beta= 0.50
     Davidson diagonalization with overlap
     ethr =  7.76E-06,  avg # of iterations =  2.1

     total cpu time spent up to now is       21.8 secs

     total energy              =     -90.72101578 Ry
     Harris-Foulkes estimate   =     -90.72152555 Ry
     estimated scf accuracy    <       0.00317348 Ry

     iteration #  5     ecut=    40.00 Ry     beta= 0.50
     Davidson diagonalization with overlap
     ethr =  7.76E-06,  avg # of iterations =  1.0

     total cpu time spent up to now is       22.2 secs

     total energy              =     -90.72127401 Ry
     Harris-Foulkes estimate   =     -90.72132075 Ry
     estimated scf accuracy    <       0.00020408 Ry

     iteration #  6     ecut=    40.00 Ry     beta= 0.50
     Davidson diagonalization with overlap
     ethr =  6.38E-07,  avg # of iterations =  1.9

     total cpu time spent up to now is       22.9 secs

     total energy              =     -90.72130056 Ry
     Harris-Foulkes estimate   =     -90.72130668 Ry
     estimated scf accuracy    <       0.00001855 Ry

     iteration #  7     ecut=    40.00 Ry     beta= 0.50
     Davidson diagonalization with overlap
     ethr =  5.80E-08,  avg # of iterations =  2.5

     total cpu time spent up to now is       23.6 secs

     total energy              =     -90.72130395 Ry
     Harris-Foulkes estimate   =     -90.72130452 Ry
     estimated scf accuracy    <       0.00000249 Ry

     iteration #  8     ecut=    40.00 Ry     beta= 0.50
     Davidson diagonalization with overlap
     ethr =  7.79E-09,  avg # of iterations =  2.2

     total cpu time spent up to now is       24.3 secs

     End of self-consistent calculation

          k = 0.0000 0.0000 0.0000 (  2449 PWs)   bands (ev):

   -14.3039 -13.1669 -12.6191  -9.0460  -8.6971  -4.2615  -3.3647  -1.9788
    -0.8522  -0.7918  -0.6067  -0.0276   0.2034   0.9565   3.1838   4.5059
     7.1576   8.4393   9.3740   9.5930

          k =-0.0487 0.0278 0.7972 (  2411 PWs)   bands (ev):

   -13.1922 -12.2026 -11.4457  -8.6340  -7.5433  -4.4870  -4.2886  -3.4436
    -2.9700  -2.2312  -0.9199  -0.7483   0.0949   0.8105   3.2137   4.4667
     5.1630   5.9598   9.0301   9.8923

          k = 0.0974-0.0556-1.5943 (  2410 PWs)   bands (ev):

   -10.3217  -9.9279  -9.8827  -8.9429  -8.1997  -7.3702  -5.8344  -5.2406
    -3.6413  -3.3264  -2.6681   1.5729   1.8668   2.3673   2.8410   3.0627
     4.4470   4.7636   7.1646   8.3578

          k = 0.0414-0.8833-0.0341 (  2420 PWs)   bands (ev):

   -14.1290 -13.5440 -11.9365 -10.4549  -6.9810  -5.9530  -2.3477  -2.2907
    -1.8467  -0.8832  -0.5769   0.4793   0.6286   0.7708   2.8413   5.9694
     7.4843   8.7789   8.8562  11.0132

          k =-0.0073-0.8555 0.7631 (  2413 PWs)   bands (ev):

   -13.0592 -12.4203 -11.0100  -9.4367  -6.6802  -5.3105  -4.3047  -3.0437
    -2.7310  -2.2435  -1.2991  -1.0862  -0.8383   1.7723   3.3019   4.2431
     5.3344   6.8431   8.1666  10.7409

          k = 0.1388-0.9389-1.6284 (  2406 PWs)   bands (ev):

   -10.2488  -9.9886  -9.7690  -8.8845  -8.2550  -7.3913  -6.0054  -4.9870
    -3.7605  -3.6823  -2.3816   1.2469   1.4755   2.1671   2.7089   3.1285
     4.4263   4.9538   6.9125   8.8925

          k =-0.4875 0.0196 0.0327 (  2432 PWs)   bands (ev):

   -14.1490 -13.6948 -11.8826 -10.3176  -6.9727  -5.9543  -2.0251  -1.9324
    -1.2363  -0.8880  -0.5143   0.3429   0.4696   0.6554   1.7515   6.1126
     7.5322   8.6465   8.8449   8.8697

          k =-0.5362 0.0474 0.8298 (  2428 PWs)   bands (ev):

   -13.0873 -12.5491 -10.9561  -9.3266  -6.6743  -5.2989  -4.3201  -3.0566
    -2.7565  -2.2601  -1.1169  -0.8117   0.0273   1.3326   2.5541   4.3694
     5.3855   6.7786   7.9883  10.2441

          k =-0.3901-0.0360-1.5617 (  2434 PWs)   bands (ev):

   -10.2689 -10.0732  -9.8052  -8.9013  -8.2179  -7.3949  -5.9415  -4.9212
    -3.7514  -3.6679  -2.3952   1.5305   1.8999   2.3915   2.7103   3.1747
     4.5018   4.6848   7.1738   8.3244

          k =-0.4461-0.8636-0.0014 (  2410 PWs)   bands (ev):

   -14.2231 -13.1118 -12.6321  -9.2035  -8.7486  -4.1895  -3.2508  -2.8371
    -1.1024  -0.8499  -0.5486  -0.0097   0.2171   0.9571   4.3277   4.8321
     7.1108   8.9464   9.3897  10.6533

          k =-0.4948-0.8358 0.7958 (  2421 PWs)   bands (ev):

   -13.1198 -12.1553 -11.4532  -8.7342  -7.6126  -4.4581  -4.2667  -3.4069
    -2.9616  -2.2181  -1.5735  -0.8994  -0.0773   0.8194   3.7214   4.5359
     5.4266   6.1769   8.6719  10.1049

          k =-0.3487-0.9192-1.5957 (  2420 PWs)   bands (ev):

   -10.2440  -9.9245  -9.8464  -8.9223  -8.2019  -7.3660  -5.9085  -5.3185
    -3.6614  -3.3304  -2.6494   1.1694   1.5694   2.1699   2.7245   3.1256
     4.5574   4.7764   6.9459   8.9086

     the Fermi energy is     4.6388 ev

!    total energy              =     -90.72130422 Ry
     Harris-Foulkes estimate   =     -90.72130432 Ry
     estimated scf accuracy    <       0.00000037 Ry

     The total energy is the sum of the following terms:

     one-electron contribution =     -48.43615109 Ry
     hartree contribution      =      37.55644607 Ry
     xc contribution           =     -27.62598257 Ry
     ewald contribution        =     -52.21470723 Ry
     smearing contrib. (-TS)   =      -0.00090940 Ry

     convergence has been achieved in   8 iterations

     Forces acting on atoms (cartesian axes, Ry/au):

     atom    1 type  1   force =     0.03462828   -0.00436454    0.04877470
     atom    2 type  1   force =    -0.03491933    0.00538447   -0.04806316
     atom    3 type  1   force =     0.01349012    0.00308614   -0.00368277
     atom    4 type  1   force =    -0.01020480   -0.00357375    0.00197957
     atom    5 type  1   force =     0.00037652   -0.00839026    0.01033187
     atom    6 type  1   force =     0.00563618    0.00287447   -0.01030574
     atom    7 type  1   force =    -0.00831313   -0.02369538   -0.00899627
     atom    8 type  1   force =    -0.00069385    0.02867885    0.00996181

     Total force =     0.097153     Total SCF correction =     0.000967


     Computing stress (Cartesian axis) and pressure

          total   stress  (Ry/bohr**3)                   (kbar)     P=        0.67
   0.00003261  -0.00005373  -0.00014447            4.80       -7.90      -21.25
  -0.00005373  -0.00010369  -0.00003229           -7.90      -15.25       -4.75
  -0.00014447  -0.00003229   0.00008470          -21.25       -4.75       12.46


     number of scf cycles    =   3
     number of bfgs steps    =   2

     enthalpy old            =     -90.7032744915 Ry
     enthalpy new            =     -90.7212646620 Ry

     CASE: enthalpy_new < enthalpy_old

     new trust radius        =       0.0506784372 bohr
     new conv_thr            =       0.0000004877 Ry

     new unit-cell volume =    580.87815 a.u.^3 (    86.07726 Ang^3 )
     density =      1.85196 g/cm^3

CELL_PARAMETERS (bohr)
  15.157510308   0.656890106   0.881110691
   0.307085234   8.321670327  -0.289214213
   0.297383914  -0.174098621   4.636754933

ATOMIC_POSITIONS (crystal)
C             0.6058427467        0.4912993105        0.3099664274
C             0.7805384671        0.4348433546        0.2662498368
C             0.5139337763        0.5348313993        0.8456273515
C             0.8730361517        0.3964940119        0.7311056629
C             0.1611006236        0.0455799111        0.5605495230
C             0.2301654001       -0.0968435444        1.0136444965
C             0.0403603053        0.2793957441        0.6469480225
C             0.3494265291        0.6684958129        0.9288996794



     Writing output data file ./pp.save/
     NEW-OLD atomic charge density approx. for the potential
     extrapolated charge   31.94596, renormalised to   32.00000

     total cpu time spent up to now is       24.3 secs

     Self-consistent Calculation

     iteration #  1     ecut=    40.00 Ry     beta= 0.50
     Davidson diagonalization with overlap
     ethr =  1.00E-06,  avg # of iterations =  7.6

     total cpu time spent up to now is       26.4 secs

     total energy              =     -90.72597991 Ry
     Harris-Foulkes estimate   =     -90.79263471 Ry
     estimated scf accuracy    <       0.00198309 Ry

     iteration #  2     ecut=    40.00 Ry     beta= 0.50
     Davidson diagonalization with overlap
     ethr =  6.20E-06,  avg # of iterations =  2.3

     total cpu time spent up to now is       27.2 secs

     total energy              =     -90.72617371 Ry
     Harris-Foulkes estimate   =     -90.72668933 Ry
     estimated scf accuracy    <       0.00118998 Ry

     iteration #  3     ecut=    40.00 Ry     beta= 0.50
     Davidson diagonalization with overlap
     ethr =  3.72E-06,  avg # of iterations =  4.1

     total cpu time spent up to now is       28.4 secs

     total energy              =     -90.72595037 Ry
     Harris-Foulkes estimate   =     -90.72708002 Ry
     estimated scf accuracy    <       0.00825459 Ry

     iteration #  4     ecut=    40.00 Ry     beta= 0.50
     Davidson diagonalization with overlap
     ethr =  3.72E-06,  avg # of iterations =  3.4

     total cpu time spent up to now is       29.4 secs

     total energy              =     -90.72650448 Ry
     Harris-Foulkes estimate   =     -90.72653761 Ry
     estimated scf accuracy    <       0.00011277 Ry

     iteration #  5     ecut=    40.00 Ry     beta= 0.50
     Davidson diagonalization with overlap
     ethr =  3.52E-07,  avg # of iterations =  2.4

     total cpu time spent up to now is       30.2 secs

     total energy              =     -90.72651745 Ry
     Harris-Foulkes estimate   =     -90.72654102 Ry
     estimated scf accuracy    <       0.00007866 Ry

     iteration #  6     ecut=    40.00 Ry     beta= 0.50
     Davidson diagonalization with overlap
     ethr =  2.46E-07,  avg # of iterations =  2.1

     total cpu time spent up to now is       30.9 secs

     total energy              =     -90.72652853 Ry
     Harris-Foulkes estimate   =     -90.72652888 Ry
     estimated scf accuracy    <       0.00000162 Ry

     iteration #  7     ecut=    40.00 Ry     beta= 0.50
     Davidson diagonalization with overlap
     ethr =  5.05E-09,  avg # of iterations =  2.9

     total cpu time spent up to now is       32.0 secs

     total energy              =     -90.72652896 Ry
     Harris-Foulkes estimate   =     -90.72652916 Ry
     estimated scf accuracy    <       0.00000070 Ry

     iteration #  8     ecut=    40.00 Ry     beta= 0.50
     Davidson diagonalization with overlap
     ethr =  2.18E-09,  avg # of iterations =  2.0

     total cpu time spent up to now is       32.8 secs

     End of self-consistent calculation

          k = 0.0000 0.0000 0.0000 (  2449 PWs)   bands (ev):

   -14.3101 -13.1993 -12.5236  -9.0391  -8.7426  -4.2340  -3.3878  -1.9789
    -0.8073  -0.7924  -0.5279  -0.0601   0.1935   1.0426   3.2505   4.4839
     7.1242   8.4565   9.4261   9.5627

          k =-0.0476 0.0294 0.7964 (  2411 PWs)   bands (ev):

   -13.2001 -12.2182 -11.3700  -8.6496  -7.5791  -4.5415  -4.1793  -3.3371
    -3.0746  -2.0728  -1.0679  -0.7614   0.1071   0.8480   3.2546   4.4437
     5.1803   5.9812   9.0007   9.9187

          k = 0.0951-0.0589-1.5929 (  2410 PWs)   bands (ev):

   -10.2985 -10.0062  -9.8756  -8.9677  -8.1198  -7.2564  -5.8589  -5.1599
    -3.6747  -3.4641  -2.6202   1.6034   1.8719   2.2520   2.8239   3.0926
     4.3927   4.8249   7.3692   8.4447

          k = 0.0405-0.8856-0.0358 (  2420 PWs)   bands (ev):

   -14.1460 -13.5265 -11.8565 -10.4876  -7.0428  -5.9090  -2.3294  -2.3009
    -1.8225  -0.8253  -0.6903   0.4275   0.8125   0.8325   2.7988   6.0756
     7.5004   8.7110   8.8212  11.1024

          k =-0.0071-0.8562 0.7606 (  2413 PWs)   bands (ev):

   -13.0742 -12.4096 -10.9364  -9.4676  -6.7408  -5.2682  -4.2762  -3.0534
    -2.6220  -2.1466  -1.3357  -1.2282  -0.8529   1.8252   3.2899   4.2529
     5.3761   6.8570   8.1478  10.7838

          k = 0.1356-0.9445-1.6287 (  2406 PWs)   bands (ev):

   -10.2069 -10.0548  -9.8035  -8.8752  -8.2274  -7.2422  -5.9816  -5.0136
    -3.7608  -3.6947  -2.4431   1.2316   1.5102   2.0606   2.7440   3.0974
     4.4641   4.9273   7.1336   8.9405

          k =-0.4874 0.0191 0.0320 (  2432 PWs)   bands (ev):

   -14.1677 -13.6762 -11.8040 -10.3556  -7.0309  -5.9062  -2.0233  -1.9018
    -1.2388  -0.8303  -0.6134   0.4188   0.4301   0.8194   1.7461   6.1860
     7.5448   8.5427   8.8108   8.8686

          k =-0.5350 0.0485 0.8284 (  2428 PWs)   bands (ev):

   -13.1020 -12.5392 -10.8830  -9.3626  -6.7323  -5.2539  -4.2924  -3.0707
    -2.6493  -2.1529  -1.3025  -0.8191   0.0356   1.3786   2.5781   4.3695
     5.4186   6.7831   7.9592  10.2643

          k =-0.3923-0.0398-1.5609 (  2434 PWs)   bands (ev):

   -10.2257 -10.1173  -9.8657  -8.8926  -8.1849  -7.2457  -5.9213  -4.9523
    -3.7513  -3.6859  -2.4516   1.5636   1.8891   2.3261   2.7109   3.1495
     4.5511   4.6444   7.3889   8.4167

          k =-0.4469-0.8666-0.0039 (  2410 PWs)   bands (ev):

   -14.2320 -13.1399 -12.5360  -9.1912  -8.7958  -4.1662  -3.2842  -2.8308
    -1.1343  -0.7899  -0.4861  -0.0306   0.2093   1.0398   4.3659   4.8561
     7.0830   8.9162   9.4431  10.7312

          k =-0.4945-0.8371 0.7926 (  2421 PWs)   bands (ev):

   -13.1301 -12.1664 -11.3776  -8.7447  -7.6501  -4.5162  -4.1563  -3.3034
    -3.0647  -2.0606  -1.5728  -1.0538  -0.0970   0.8632   3.7337   4.5400
     5.4626   6.1839   8.6595  10.1969

          k =-0.3518-0.9254-1.5968 (  2420 PWs)   bands (ev):

   -10.2157  -9.9985  -9.8457  -8.9531  -8.1204  -7.2509  -5.9309  -5.2336
    -3.6927  -3.4721  -2.5994   1.1596   1.6036   2.0508   2.7026   3.1498
     4.5301   4.8415   7.1276   8.9511

     the Fermi energy is     4.6386 ev

!    total energy              =     -90.72652905 Ry
     Harris-Foulkes estimate   =     -90.72652910 Ry
     estimated scf accuracy    <       0.00000014 Ry

     The total energy is the sum of the following terms:

     one-electron contribution =     -48.09947087 Ry
     hartree contribution      =      37.40029516 Ry
     xc contribution           =     -27.63497078 Ry
     ewald contribution        =     -52.39177661 Ry
     smearing contrib. (-TS)   =      -0.00060595 Ry

     convergence has been achieved in   8 iterations

     Forces acting on atoms (cartesian axes, Ry/au):

     atom    1 type  1   force =    -0.02545972    0.00655367    0.01553106
     atom    2 type  1   force =     0.02562200   -0.00493119   -0.01574565
     atom    3 type  1   force =     0.01305000    0.00605049    0.01595850
     atom    4 type  1   force =    -0.01794468   -0.00375570   -0.01628255
     atom    5 type  1   force =    -0.00288746   -0.00464398    0.00157175
     atom    6 type  1   force =    -0.00088763    0.00959749   -0.00055632
     atom    7 type  1   force =    -0.01433855   -0.01922219   -0.00466340
     atom    8 type  1   force =     0.02284604    0.01035140    0.00418660

     Total force =     0.065521     Total SCF correction =     0.000545


     Computing stress (Cartesian axis) and pressure

          total   stress  (Ry/bohr**3)                   (kbar)     P=        3.28
   0.00012497  -0.00007985  -0.00015332           18.38      -11.75      -22.55
  -0.00007985  -0.00007263  -0.00001902          -11.75      -10.68       -2.80
  -0.00015332  -0.00001902   0.00001445          -22.55       -2.80        2.13


     number of scf cycles    =   4
     number of bfgs steps    =   3

     enthalpy old            =     -90.7212646620 Ry
     enthalpy new            =     -90.7264895599 Ry

     CASE: enthalpy_new < enthalpy_old

     new trust radius        =       0.0568033358 bohr
     new conv_thr            =       0.0000002562 Ry

     new unit-cell volume =    582.03081 a.u.^3 (    86.24807 Ang^3 )
     density =      1.84829 g/cm^3

CELL_PARAMETERS (bohr)
  15.228025300   0.594496268   0.806694545
   0.273510084   8.280637928  -0.318503933
   0.272235323  -0.188994945   4.644129724

ATOMIC_POSITIONS (crystal)
C             0.6056794474        0.4919309501        0.3206045413
C             0.7806832612        0.4345914407        0.2555809202
C             0.5158131378        0.5357424178        0.8518653018
C             0.8708678224        0.3959816111        0.7244846888
C             0.1609216353        0.0440972863        0.5642254131
C             0.2303332792       -0.0951052119        1.0102681572
C             0.0382757534        0.2742971459        0.6440185373
C             0.3518296633        0.6725603600        0.9319434404



     Writing output data file ./pp.save/
     NEW-OLD atomic charge density approx. for the potential
     extrapolated charge   32.06337, renormalised to   32.00000

     total cpu time spent up to now is       32.8 secs

     Self-consistent Calculation

     iteration #  1     ecut=    40.00 Ry     beta= 0.50
     Davidson diagonalization with overlap
     ethr =  1.00E-06,  avg # of iterations =  9.2

     total cpu time spent up to now is       35.9 secs

     total energy              =     -90.73087975 Ry
     Harris-Foulkes estimate   =     -90.65776191 Ry
     estimated scf accuracy    <       0.00328275 Ry

     iteration #  2     ecut=    40.00 Ry     beta= 0.50
     Davidson diagonalization with overlap
     ethr =  1.03E-05,  avg # of iterations =  3.2

     total cpu time spent up to now is       37.1 secs

     total energy              =     -90.73129345 Ry
     Harris-Foulkes estimate   =     -90.73269148 Ry
     estimated scf accuracy    <       0.00397576 Ry

     iteration #  3     ecut=    40.00 Ry     beta= 0.50
     Davidson diagonalization with overlap
     ethr =  1.03E-05,  avg # of iterations =  2.3

     total cpu time spent up to now is       38.0 secs

     total energy              =     -90.73163394 Ry
     Harris-Foulkes estimate   =     -90.73216758 Ry
     estimated scf accuracy    <       0.00247185 Ry

     iteration #  4     ecut=    40.00 Ry     beta= 0.50
     Davidson diagonalization with overlap
     ethr =  7.72E-06,  avg # of iterations =  1.2

     total cpu time spent up to now is       38.7 secs

     total energy              =     -90.73186114 Ry
     Harris-Foulkes estimate   =     -90.73212037 Ry
     estimated scf accuracy    <       0.00175274 Ry

     iteration #  5     ecut=    40.00 Ry     beta= 0.50
     Davidson diagonalization with overlap
     ethr =  5.48E-06,  avg # of iterations =  1.0

     total cpu time spent up to now is       39.4 secs

     total energy              =     -90.73198576 Ry
     Harris-Foulkes estimate   =     -90.73201389 Ry
     estimated scf accuracy    <       0.00008752 Ry

     iteration #  6     ecut=    40.00 Ry     beta= 0.50
     Davidson diagonalization with overlap
     ethr =  2.73E-07,  avg # of iterations =  2.0

     total cpu time spent up to now is       40.3 secs

     total energy              =     -90.73200243 Ry
     Harris-Foulkes estimate   =     -90.73200272 Ry
     estimated scf accuracy    <       0.00000356 Ry

     iteration #  7     ecut=    40.00 Ry     beta= 0.50
     Davidson diagonalization with overlap
     ethr =  1.11E-08,  avg # of iterations =  2.4

     total cpu time spent up to now is       41.5 secs

     total energy              =     -90.73200323 Ry
     Harris-Foulkes estimate   =     -90.73200321 Ry
     estimated scf accuracy    <       0.00000041 Ry

     iteration #  8     ecut=    40.00 Ry     beta= 0.50
     Davidson diagonalization with overlap
     ethr =  1.27E-09,  avg # of iterations =  2.1

     total cpu time spent up to now is       42.5 secs

     End of self-consistent calculation

          k = 0.0000 0.0000 0.0000 (  2449 PWs)   bands (ev):

   -14.3000 -13.1912 -12.5012  -9.0282  -8.6824  -4.1929  -3.3726  -1.9691
    -0.9212  -0.8132  -0.5009   0.0112   0.1494   0.9195   3.2263   4.4933
     7.1300   8.4729   9.3652   9.5163

          k =-0.0434 0.0320 0.7949 (  2411 PWs)   bands (ev):

   -13.1957 -12.1986 -11.3679  -8.5932  -7.5684  -4.5778  -4.1767  -3.2794
    -3.1482  -2.1854  -1.0064  -0.7527   0.1336   0.8596   3.2752   4.4314
     5.1215   5.9411   8.9620   9.9390

          k = 0.0867-0.0640-1.5897 (  2410 PWs)   bands (ev):

   -10.2877 -10.0075  -9.8098  -9.0343  -8.1147  -7.3215  -5.8734  -5.0781
    -3.6570  -3.5012  -2.5866   1.6782   1.9001   2.2388   2.7782   3.1000
     4.2760   4.8487   7.2810   8.4521

          k = 0.0368-0.8900-0.0384 (  2420 PWs)   bands (ev):

   -14.1467 -13.4888 -11.8740 -10.4134  -7.0089  -5.9020  -2.3293  -2.2909
    -1.7930  -0.9480  -0.6500   0.3827   0.6841   0.7876   2.8009   6.1481
     7.4827   8.7383   8.8072  11.0865

          k =-0.0066-0.8580 0.7565 (  2413 PWs)   bands (ev):

   -13.0750 -12.3828 -10.9370  -9.4206  -6.6851  -5.2765  -4.3508  -3.1181
    -2.6720  -2.0709  -1.3405  -1.2133  -0.8713   1.8035   3.2668   4.2252
     5.3950   6.8556   8.1415  10.7406

          k = 0.1235-0.9540-1.6281 (  2406 PWs)   bands (ev):

   -10.1762 -10.0306  -9.8191  -8.8585  -8.2852  -7.2854  -5.9252  -5.0965
    -3.7099  -3.5505  -2.5376   1.2360   1.5748   2.0475   2.7573   3.0276
     4.4708   4.8260   7.0724   8.9230

          k =-0.4847 0.0171 0.0291 (  2432 PWs)   bands (ev):

   -14.1717 -13.6378 -11.8244 -10.2888  -6.9920  -5.8889  -2.0185  -1.8595
    -1.2115  -0.9524  -0.5670   0.3735   0.3930   0.6922   1.8096   6.1342
     7.5185   8.5425   8.7937   8.8687

          k =-0.5281 0.0491 0.8240 (  2428 PWs)   bands (ev):

   -13.1030 -12.5144 -10.8864  -9.3212  -6.6744  -5.2545  -4.3660  -3.1448
    -2.6806  -2.0804  -1.3222  -0.8050   0.0561   1.3828   2.5948   4.3290
     5.4111   6.7384   7.9238  10.2828

          k =-0.3980-0.0469-1.5606 (  2434 PWs)   bands (ev):

   -10.1945 -10.0849  -9.8950  -8.8761  -8.2404  -7.2890  -5.8706  -5.0398
    -3.6985  -3.5466  -2.5396   1.6335   1.9245   2.3165   2.7314   3.0898
     4.5156   4.5791   7.3061   8.4620

          k =-0.4479-0.8728-0.0093 (  2410 PWs)   bands (ev):

   -14.2235 -13.1291 -12.5064  -9.1784  -8.7358  -4.1347  -3.2853  -2.8144
    -1.1519  -0.9184  -0.5208   0.0445   0.1646   0.9168   4.3120   4.9208
     7.0983   8.9525   9.3803  10.8007

          k =-0.4913-0.8408 0.7856 (  2421 PWs)   bands (ev):

   -13.1270 -12.1455 -11.3683  -8.6887  -7.6385  -4.5602  -4.1508  -3.2679
    -3.1203  -2.1704  -1.5586  -1.0000  -0.0870   0.8205   3.7374   4.5539
     5.4285   6.1384   8.6811  10.2050

          k =-0.3612-0.9369-1.5990 (  2420 PWs)   bands (ev):

   -10.2028  -9.9900  -9.7921  -9.0202  -8.1109  -7.3138  -5.9438  -5.1496
    -3.6733  -3.5086  -2.5682   1.1605   1.6762   2.0308   2.6522   3.1494
     4.4272   4.8571   7.0349   8.9230

     the Fermi energy is     4.6146 ev

!    total energy              =     -90.73200324 Ry
     Harris-Foulkes estimate   =     -90.73200330 Ry
     estimated scf accuracy    <       0.00000012 Ry

     The total energy is the sum of the following terms:

     one-electron contribution =     -47.10179496 Ry
     hartree contribution      =      36.87370593 Ry
     xc contribution           =     -27.59685275 Ry
     ewald contribution        =     -52.90680194 Ry
     smearing contrib. (-TS)   =      -0.00025952 Ry

     convergence has been achieved in   8 iterations

     Forces acting on atoms (cartesian axes, Ry/au):

     atom    1 type  1   force =    -0.00844194    0.00688263   -0.01542208
     atom    2 type  1   force =     0.00727089   -0.00508303    0.01347127
     atom    3 type  1   force =    -0.00537631    0.01341022    0.02412354
     atom    4 type  1   force =     0.00967479   -0.01346679   -0.02302123
     atom    5 type  1   force =    -0.01522244    0.00502590   -0.01008679
     atom    6 type  1   force =     0.01757018   -0.00713086    0.01051574
     atom    7 type  1   force =    -0.02219415   -0.01729527   -0.00002239
     atom    8 type  1   force =     0.01671897    0.01765720    0.00044193

     Total force =     0.066516     Total SCF correction =     0.000532


     Computing stress (Cartesian axis) and pressure

          total   stress  (Ry/bohr**3)                   (kbar)     P=      -13.22
  -0.00010294   0.00004661  -0.00002284          -15.14        6.86       -3.36
   0.00004661  -0.00016644  -0.00005084            6.86      -24.48       -7.48
  -0.00002284  -0.00005084  -0.00000015           -3.36       -7.48       -0.02


     number of scf cycles    =   5
     number of bfgs steps    =   4

     enthalpy old            =     -90.7264895599 Ry
     enthalpy new            =     -90.7319636764 Ry

     CASE: enthalpy_new < enthalpy_old

     new trust radius        =       0.1026676329 bohr
     new conv_thr            =       0.0000002412 Ry

     new unit-cell volume =    578.89438 a.u.^3 (    85.78329 Ang^3 )
     density =      1.85831 g/cm^3

CELL_PARAMETERS (bohr)
  15.286774922   0.526451753   0.754437751
   0.239142094   8.185190083  -0.381935792
   0.256639454  -0.225145473   4.655114927

ATOMIC_POSITIONS (crystal)
C             0.6058999139        0.4934756929        0.3303056827
C             0.7802907582        0.4338009048        0.2452915461
C             0.5175951149        0.5386534819        0.8648202643
C             0.8693502693        0.3933116994        0.7114214015
C             0.1591135061        0.0435614906        0.5665910630
C             0.2326038585       -0.0950697628        1.0084555417
C             0.0340819727        0.2654435964        0.6400046456
C             0.3554686064        0.6809188967        0.9361008550



     Writing output data file ./pp.save/
     NEW-OLD atomic charge density approx. for the potential
     extrapolated charge   31.82663, renormalised to   32.00000

     total cpu time spent up to now is       42.5 secs

     Self-consistent Calculation

     iteration #  1     ecut=    40.00 Ry     beta= 0.50
     Davidson diagonalization with overlap
     ethr =  1.00E-06,  avg # of iterations =  9.1

     total cpu time spent up to now is       46.3 secs

     total energy              =     -90.73612005 Ry
     Harris-Foulkes estimate   =     -90.93497684 Ry
     estimated scf accuracy    <       0.00415625 Ry

     iteration #  2     ecut=    40.00 Ry     beta= 0.50
     Davidson diagonalization with overlap
     ethr =  1.30E-05,  avg # of iterations =  2.6

     total cpu time spent up to now is       47.7 secs

     total energy              =     -90.73697905 Ry
     Harris-Foulkes estimate   =     -90.73802296 Ry
     estimated scf accuracy    <       0.00249257 Ry

     iteration #  3     ecut=    40.00 Ry     beta= 0.50
     Davidson diagonalization with overlap
     ethr =  7.79E-06,  avg # of iterations =  4.2

     total cpu time spent up to now is       49.3 secs

     total energy              =     -90.73644070 Ry
     Harris-Foulkes estimate   =     -90.73879400 Ry
     estimated scf accuracy    <       0.01604336 Ry

     iteration #  4     ecut=    40.00 Ry     beta= 0.50
     Davidson diagonalization with overlap
     ethr =  7.79E-06,  avg # of iterations =  3.8

     total cpu time spent up to now is       50.9 secs

     total energy              =     -90.73757951 Ry
     Harris-Foulkes estimate   =     -90.73779529 Ry
     estimated scf accuracy    <       0.00094738 Ry

     iteration #  5     ecut=    40.00 Ry     beta= 0.50
     Davidson diagonalization with overlap
     ethr =  2.96E-06,  avg # of iterations =  2.8

     total cpu time spent up to now is       52.1 secs

     total energy              =     -90.73769650 Ry
     Harris-Foulkes estimate   =     -90.73772340 Ry
     estimated scf accuracy    <       0.00011863 Ry

     iteration #  6     ecut=    40.00 Ry     beta= 0.50
     Davidson diagonalization with overlap
     ethr =  3.71E-07,  avg # of iterations =  2.2

     total cpu time spent up to now is       53.3 secs

     total energy              =     -90.73771299 Ry
     Harris-Foulkes estimate   =     -90.73771377 Ry
     estimated scf accuracy    <       0.00000371 Ry

     iteration #  7     ecut=    40.00 Ry     beta= 0.50
     Davidson diagonalization with overlap
     ethr =  1.16E-08,  avg # of iterations =  2.8

     total cpu time spent up to now is       54.8 secs

     total energy              =     -90.73771392 Ry
     Harris-Foulkes estimate   =     -90.73771442 Ry
     estimated scf accuracy    <       0.00000198 Ry

     iteration #  8     ecut=    40.00 Ry     beta= 0.50
     Davidson diagonalization with overlap
     ethr =  6.17E-09,  avg # of iterations =  1.1

     total cpu time spent up to now is       55.7 secs

     End of self-consistent calculation

          k = 0.0000 0.0000 0.0000 (  2449 PWs)   bands (ev):

   -14.2474 -13.0806 -12.4664  -9.0343  -8.6130  -4.1464  -3.3390  -1.9055
    -0.9633  -0.7068  -0.4479   0.0625   0.2721   0.9849   3.2751   4.5943
     7.0782   8.5572   9.4486   9.6890

          k =-0.0405 0.0382 0.7932 (  2411 PWs)   bands (ev):

   -13.1498 -12.0998 -11.3337  -8.5829  -7.5461  -4.5214  -4.2101  -3.1568
    -3.0992  -2.1579  -0.9536  -0.7006   0.1996   0.9476   3.3747   4.4138
     5.1766   6.0214   9.0847  10.0346

          k = 0.0809-0.0764-1.5865 (  2410 PWs)   bands (ev):

   -10.2472  -9.9841  -9.7887  -8.9631  -8.0873  -7.2900  -5.8331  -4.9354
    -3.6769  -3.4999  -2.5134   1.7060   1.9347   2.2837   2.8141   3.2224
     4.3045   4.8677   7.2894   8.6596

          k = 0.0333-0.9007-0.0454 (  2420 PWs)   bands (ev):

   -14.1013 -13.3795 -11.8136 -10.3725  -7.0152  -5.8312  -2.3192  -2.2173
    -1.8338  -0.9857  -0.5833   0.6034   0.6400   0.8569   2.7611   6.5130
     7.4282   8.7441   8.8984  11.3445

          k =-0.0072-0.8625 0.7478 (  2413 PWs)   bands (ev):

   -13.0346 -12.2819 -10.8843  -9.3956  -6.6774  -5.2566  -4.3434  -2.9985
    -2.6173  -2.0542  -1.3074  -1.1639  -0.8480   1.8533   3.2349   4.2306
     5.5751   6.9853   8.2426  10.8848

          k = 0.1142-0.9771-1.6319 (  2406 PWs)   bands (ev):

   -10.1653  -9.9679  -9.7886  -8.8243  -8.2265  -7.2715  -5.7651  -5.1224
    -3.7000  -3.4154  -2.5606   1.2540   1.5692   2.0687   2.8658   3.0783
     4.5043   4.8379   7.0624   9.1981

          k =-0.4825 0.0154 0.0273 (  2432 PWs)   bands (ev):

   -14.1324 -13.5317 -11.7666 -10.2647  -6.9917  -5.7971  -1.9801  -1.8582
    -1.1173  -0.9895  -0.4914   0.4666   0.5943   0.6534   1.8987   6.2680
     7.4533   8.5020   8.8825   8.9430

          k =-0.5230 0.0536 0.8206 (  2428 PWs)   bands (ev):

   -13.0659 -12.4183 -10.8347  -9.3118  -6.6629  -5.2203  -4.3566  -3.0329
    -2.6119  -2.0651  -1.2828  -0.7484   0.1277   1.4477   2.6787   4.3159
     5.5553   6.8084   7.9357  10.3676

          k =-0.4016-0.0610-1.5591 (  2434 PWs)   bands (ev):

   -10.1855 -10.0038  -9.8875  -8.8362  -8.1843  -7.2793  -5.7249  -5.0695
    -3.6853  -3.4136  -2.5604   1.6509   1.9917   2.3268   2.8547   3.1555
     4.5353   4.5886   7.3099   8.7201

          k =-0.4492-0.8853-0.0181 (  2410 PWs)   bands (ev):

   -14.1699 -13.0121 -12.4616  -9.1728  -8.6707  -4.1065  -3.2848  -2.7655
    -1.0777  -0.9612  -0.5564   0.1039   0.2869   0.9830   4.2774   5.1595
     7.0559   9.2223   9.4571  11.0006

          k =-0.4897-0.8472 0.7752 (  2421 PWs)   bands (ev):

   -13.0804 -12.0449 -11.3213  -8.6742  -7.6142  -4.5103  -4.1881  -3.1587
    -3.0719  -2.1441  -1.5192  -0.9518  -0.0199   0.7996   3.7916   4.5723
     5.5604   6.1741   8.9062  10.3429

          k =-0.3683-0.9617-1.6045 (  2420 PWs)   bands (ev):

   -10.1630  -9.9561  -9.7825  -8.9426  -8.0802  -7.2785  -5.9072  -4.9929
    -3.6867  -3.5067  -2.5021   1.1719   1.6721   2.0501   2.7116   3.2594
     4.4367   4.8798   7.0275   9.2019

     the Fermi energy is     4.6343 ev

!    total energy              =     -90.73771408 Ry
     Harris-Foulkes estimate   =     -90.73771423 Ry
     estimated scf accuracy    <       0.00000023 Ry

     The total energy is the sum of the following terms:

     one-electron contribution =     -45.49084853 Ry
     hartree contribution      =      36.12410863 Ry
     xc contribution           =     -27.60289340 Ry
     ewald contribution        =     -53.76819189 Ry
     smearing contrib. (-TS)   =       0.00011110 Ry

     convergence has been achieved in   8 iterations

     Forces acting on atoms (cartesian axes, Ry/au):

     atom    1 type  1   force =    -0.00221475    0.00825307   -0.02080533
     atom    2 type  1   force =     0.00441628   -0.00732113    0.02107617
     atom    3 type  1   force =    -0.00886559    0.01536301    0.00503634
     atom    4 type  1   force =     0.00346899   -0.01256467   -0.00586583
     atom    5 type  1   force =    -0.00117987   -0.00720982   -0.01518040
     atom    6 type  1   force =    -0.00575733    0.01396393    0.01611328
     atom    7 type  1   force =    -0.01459694   -0.01305693    0.00135234
     atom    8 type  1   force =     0.02472921    0.00257255   -0.00172658

     Total force =     0.057841     Total SCF correction =     0.000736


     Computing stress (Cartesian axis) and pressure

          total   stress  (Ry/bohr**3)                   (kbar)     P=      -10.97
  -0.00000610  -0.00001380   0.00006464           -0.90       -2.03        9.51
  -0.00001380  -0.00010391  -0.00002217           -2.03      -15.29       -3.26
   0.00006464  -0.00002217  -0.00011374            9.51       -3.26      -16.73


     number of scf cycles    =   6
     number of bfgs steps    =   5

     enthalpy old            =     -90.7319636764 Ry
     enthalpy new            =     -90.7376747316 Ry

     CASE: enthalpy_new < enthalpy_old

     new trust radius        =       0.1069395434 bohr
     new conv_thr            =       0.0000002473 Ry

     new unit-cell volume =    573.19050 a.u.^3 (    84.93807 Ang^3 )
     density =      1.87680 g/cm^3

CELL_PARAMETERS (bohr)
  15.367259835   0.438498617   0.763202691
   0.196008921   8.082322592  -0.447133613
   0.259814760  -0.262737889   4.646323983

ATOMIC_POSITIONS (crystal)
C             0.6066347609        0.4957833121        0.3356926603
C             0.7796690688        0.4321828035        0.2397385842
C             0.5184994854        0.5431843843        0.8748148822
C             0.8680010369        0.3895636395        0.7007406633
C             0.1578998066        0.0415249895        0.5659726754
C             0.2334724943       -0.0922351305        1.0095888348
C             0.0297058477        0.2559535819        0.6365019695
C             0.3605214993        0.6881384198        0.9399407303



     Writing output data file ./pp.save/
     NEW-OLD atomic charge density approx. for the potential
     extrapolated charge   31.68157, renormalised to   32.00000

     total cpu time spent up to now is       55.8 secs

     Self-consistent Calculation

     iteration #  1     ecut=    40.00 Ry     beta= 0.50
     Davidson diagonalization with overlap
     ethr =  1.00E-06,  avg # of iterations =  9.7

     total cpu time spent up to now is       60.5 secs

     total energy              =     -90.73793646 Ry
     Harris-Foulkes estimate   =     -91.08587281 Ry
     estimated scf accuracy    <       0.00501057 Ry

     iteration #  2     ecut=    40.00 Ry     beta= 0.50
     Davidson diagonalization with overlap
     ethr =  1.57E-05,  avg # of iterations =  3.0

     total cpu time spent up to now is       62.3 secs

     total energy              =     -90.74140711 Ry
     Harris-Foulkes estimate   =     -90.74207449 Ry
     estimated scf accuracy    <       0.00184124 Ry

     iteration #  3     ecut=    40.00 Ry     beta= 0.50
     Davidson diagonalization with overlap
     ethr =  5.75E-06,  avg # of iterations =  1.6

     total cpu time spent up to now is       63.5 secs

     total energy              =     -90.74123764 Ry
     Harris-Foulkes estimate   =     -90.74171456 Ry
     estimated scf accuracy    <       0.00189449 Ry

     iteration #  4     ecut=    40.00 Ry     beta= 0.50
     Davidson diagonalization with overlap
     ethr =  5.75E-06,  avg # of iterations =  1.1

     total cpu time spent up to now is       64.4 secs

     total energy              =     -90.74130232 Ry
     Harris-Foulkes estimate   =     -90.74174990 Ry
     estimated scf accuracy    <       0.00299188 Ry

     iteration #  5     ecut=    40.00 Ry     beta= 0.50
     Davidson diagonalization with overlap
     ethr =  5.75E-06,  avg # of iterations =  1.0

     total cpu time spent up to now is       65.5 secs

     total energy              =     -90.74149235 Ry
     Harris-Foulkes estimate   =     -90.74153943 Ry
     estimated scf accuracy    <       0.00015267 Ry

     iteration #  6     ecut=    40.00 Ry     beta= 0.50
     Davidson diagonalization with overlap
     ethr =  4.77E-07,  avg # of iterations =  2.0

     total cpu time spent up to now is       66.8 secs

     total energy              =     -90.74151610 Ry
     Harris-Foulkes estimate   =     -90.74152026 Ry
     estimated scf accuracy    <       0.00001382 Ry

     iteration #  7     ecut=    40.00 Ry     beta= 0.50
     Davidson diagonalization with overlap
     ethr =  4.32E-08,  avg # of iterations =  2.3

     total cpu time spent up to now is       68.3 secs

     total energy              =     -90.74151868 Ry
     Harris-Foulkes estimate   =     -90.74151995 Ry
     estimated scf accuracy    <       0.00000388 Ry

     iteration #  8     ecut=    40.00 Ry     beta= 0.50
     Davidson diagonalization with overlap
     ethr =  1.21E-08,  avg # of iterations =  2.0

     total cpu time spent up to now is       69.7 secs

     total energy              =     -90.74151906 Ry
     Harris-Foulkes estimate   =     -90.74151926 Ry
     estimated scf accuracy    <       0.00000058 Ry

     iteration #  9     ecut=    40.00 Ry     beta= 0.50
     Davidson diagonalization with overlap
     ethr =  1.82E-09,  avg # of iterations =  2.0

     total cpu time spent up to now is       71.3 secs

     End of self-consistent calculation

          k = 0.0000 0.0000 0.0000 (  2449 PWs)   bands (ev):

   -14.1766 -12.9853 -12.4305  -8.9151  -8.5964  -4.1181  -3.2183  -1.8072
    -0.8401  -0.6154  -0.3622   0.1588   0.3706   1.0709   3.4291   4.6260
     7.2102   8.6929   9.5208   9.8975

          k =-0.0408 0.0450 0.7955 (  2411 PWs)   bands (ev):

   -13.0738 -12.0144 -11.2740  -8.5132  -7.4660  -4.3988  -4.2048  -3.0475
    -3.0145  -2.0635  -0.8985  -0.6045   0.2746   1.0855   3.5479   4.4380
     5.2795   6.0858   9.2458  10.1908

          k = 0.0816-0.0900-1.5910 (  2410 PWs)   bands (ev):

   -10.1361  -9.8949  -9.7382  -8.7941  -8.0881  -7.2079  -5.8118  -4.7806
    -3.6393  -3.4531  -2.4486   1.7847   2.0655   2.3819   2.8859   3.3300
     4.4384   4.8723   7.3825   8.8415

          k = 0.0287-0.9127-0.0532 (  2420 PWs)   bands (ev):

   -14.0285 -13.2869 -11.7767 -10.2633  -6.9688  -5.7857  -2.2802  -2.1378
    -1.7633  -0.8616  -0.5209   0.6966   0.7349   0.9102   2.7965   6.7762
     7.5798   8.8381   8.9813  11.7036

          k =-0.0121-0.8677 0.7423 (  2413 PWs)   bands (ev):

   -12.9606 -12.1788 -10.8541  -9.2650  -6.6441  -5.1993  -4.2332  -2.8954
    -2.5446  -1.9829  -1.2486  -1.1044  -0.7756   1.8955   3.3123   4.3316
     5.7028   7.0865   8.4266  11.0643

          k = 0.1103-1.0027-1.6442 (  2406 PWs)   bands (ev):

   -10.1058  -9.8644  -9.6364  -8.7888  -8.1274  -7.2164  -5.6629  -5.0693
    -3.6303  -3.3457  -2.5185   1.3817   1.6036   2.1531   2.9559   3.1638
     4.5523   4.9352   7.1366   9.4165

          k =-0.4799 0.0132 0.0276 (  2432 PWs)   bands (ev):

   -14.0672 -13.4422 -11.7319 -10.1746  -6.9323  -5.7359  -1.8917  -1.7610
    -1.0170  -0.8649  -0.4299   0.5360   0.6893   0.7456   2.0703   6.3582
     7.6005   8.5135   8.9434   9.0735

          k =-0.5206 0.0582 0.8231 (  2428 PWs)   bands (ev):

   -12.9978 -12.3183 -10.8054  -9.1986  -6.6203  -5.1535  -4.2449  -2.9278
    -2.5365  -1.9940  -1.2238  -0.6511   0.2330   1.4994   2.8714   4.4011
     5.6627   6.8483   8.0311  10.5155

          k =-0.3983-0.0768-1.5634 (  2434 PWs)   bands (ev):

   -10.1307  -9.8921  -9.7465  -8.7986  -8.0890  -7.2275  -5.6328  -5.0197
    -3.6077  -3.3428  -2.5189   1.7271   2.1375   2.4202   2.9523   3.2470
     4.5903   4.6590   7.4008   8.9448

          k =-0.4512-0.8995-0.0256 (  2410 PWs)   bands (ev):

   -14.0941 -12.9146 -12.4140  -9.0463  -8.6551  -4.0956  -3.1915  -2.7023
    -0.9966  -0.8377  -0.5513   0.1909   0.3834   1.0675   4.3731   5.2598
     7.1916   9.5242   9.5562  11.2650

          k =-0.4920-0.8545 0.7698 (  2421 PWs)   bands (ev):

   -13.0005 -11.9605 -11.2486  -8.5982  -7.5353  -4.3901  -4.1902  -3.0595
    -2.9905  -2.0520  -1.4475  -0.8973   0.0563   0.8337   3.9257   4.6419
     5.6920   6.2108   9.1628  10.5281

          k =-0.3696-0.9895-1.6166 (  2420 PWs)   bands (ev):

   -10.0554  -9.8596  -9.7333  -8.7646  -8.0811  -7.1927  -5.8869  -4.8306
    -3.6459  -3.4587  -2.4453   1.2933   1.7013   2.1360   2.7952   3.3551
     4.5486   4.9045   7.1111   9.4621

     the Fermi energy is     4.6957 ev

!    total energy              =     -90.74151910 Ry
     Harris-Foulkes estimate   =     -90.74151923 Ry
     estimated scf accuracy    <       0.00000018 Ry

     The total energy is the sum of the following terms:

     one-electron contribution =     -43.60091969 Ry
     hartree contribution      =      35.27895619 Ry
     xc contribution           =     -27.61228191 Ry
     ewald contribution        =     -54.80717423 Ry
     smearing contrib. (-TS)   =      -0.00009946 Ry

     convergence has been achieved in   9 iterations

     Forces acting on atoms (cartesian axes, Ry/au):

     atom    1 type  1   force =     0.00172200    0.00701919   -0.02062992
     atom    2 type  1   force =    -0.00258003   -0.00560158    0.01753067
     atom    3 type  1   force =     0.01121066    0.01104161   -0.00891576
     atom    4 type  1   force =     0.00196961   -0.01627730    0.01140853
     atom    5 type  1   force =     0.00193208   -0.00881183   -0.01112015
     atom    6 type  1   force =     0.00891696   -0.00154548    0.01078047
     atom    7 type  1   force =    -0.00613373   -0.00902593    0.00024215
     atom    8 type  1   force =    -0.01703756    0.02320132    0.00070402

     Total force =     0.053858     Total SCF correction =     0.000847


     Computing stress (Cartesian axis) and pressure

          total   stress  (Ry/bohr**3)                   (kbar)     P=       -8.62
   0.00000313   0.00000927   0.00002090            0.46        1.36        3.07
   0.00000927  -0.00013195   0.00003908            1.36      -19.41        5.75
   0.00002090   0.00003908  -0.00004699            3.07        5.75       -6.91


     number of scf cycles    =   7
     number of bfgs steps    =   6

     enthalpy old            =     -90.7376747316 Ry
     enthalpy new            =     -90.7414801327 Ry

     CASE: enthalpy_new < enthalpy_old

     new trust radius        =       0.0986605206 bohr
     new conv_thr            =       0.0000002320 Ry

     new unit-cell volume =    565.68758 a.u.^3 (    83.82625 Ang^3 )
     density =      1.90169 g/cm^3

CELL_PARAMETERS (bohr)
  15.440172371   0.361485333   0.761107199
   0.162199907   7.963722332  -0.485077248
   0.258170157  -0.285522858   4.633517493

ATOMIC_POSITIONS (crystal)
C             0.6069567869        0.4989092105        0.3353584344
C             0.7793402951        0.4298772719        0.2390840615
C             0.5203523940        0.5483632451        0.8802594645
C             0.8669806861        0.3840455258        0.6956619972
C             0.1572046898        0.0384319137        0.5625837415
C             0.2349105145       -0.0901126098        1.0136303194
C             0.0257083832        0.2469036453        0.6336796677
C             0.3629502505        0.6976777973        0.9427333139



     Writing output data file ./pp.save/
     NEW-OLD atomic charge density approx. for the potential
     extrapolated charge   31.57558, renormalised to   32.00000

     total cpu time spent up to now is       71.4 secs

     Self-consistent Calculation

     iteration #  1     ecut=    40.00 Ry     beta= 0.50
     Davidson diagonalization with overlap
     ethr =  1.00E-06,  avg # of iterations =  9.6

     total cpu time spent up to now is       76.7 secs

     total energy              =     -90.73834867 Ry
     Harris-Foulkes estimate   =     -91.18046190 Ry
     estimated scf accuracy    <       0.00710514 Ry

     iteration #  2     ecut=    40.00 Ry     beta= 0.50
     Davidson diagonalization with overlap
     ethr =  2.22E-05,  avg # of iterations =  4.2

     total cpu time spent up to now is       79.2 secs

     total energy              =     -90.74213440 Ry
     Harris-Foulkes estimate   =     -90.74664908 Ry
     estimated scf accuracy    <       0.01484925 Ry

     iteration #  3     ecut=    40.00 Ry     beta= 0.50
     Davidson diagonalization with overlap
     ethr =  2.22E-05,  avg # of iterations =  4.6

     total cpu time spent up to now is       81.7 secs

     total energy              =     -90.74249900 Ry
     Harris-Foulkes estimate   =     -90.74750650 Ry
     estimated scf accuracy    <       0.03686614 Ry

     iteration #  4     ecut=    40.00 Ry     beta= 0.50
     Davidson diagonalization with overlap
     ethr =  2.22E-05,  avg # of iterations =  2.7

     total cpu time spent up to now is       83.4 secs

     total energy              =     -90.74475412 Ry
     Harris-Foulkes estimate   =     -90.74498626 Ry
     estimated scf accuracy    <       0.00081731 Ry

     iteration #  5     ecut=    40.00 Ry     beta= 0.50
     Davidson diagonalization with overlap
     ethr =  2.55E-06,  avg # of iterations =  4.3

     total cpu time spent up to now is       85.7 secs

     total energy              =     -90.74473728 Ry
     Harris-Foulkes estimate   =     -90.74488933 Ry
     estimated scf accuracy    <       0.00037124 Ry

     iteration #  6     ecut=    40.00 Ry     beta= 0.50
     Davidson diagonalization with overlap
     ethr =  1.16E-06,  avg # of iterations =  2.9

     total cpu time spent up to now is       87.7 secs

     total energy              =     -90.74479230 Ry
     Harris-Foulkes estimate   =     -90.74481434 Ry
     estimated scf accuracy    <       0.00007162 Ry

     iteration #  7     ecut=    40.00 Ry     beta= 0.50
     Davidson diagonalization with overlap
     ethr =  2.24E-07,  avg # of iterations =  2.0

     total cpu time spent up to now is       89.4 secs

     total energy              =     -90.74480390 Ry
     Harris-Foulkes estimate   =     -90.74480549 Ry
     estimated scf accuracy    <       0.00000481 Ry

     iteration #  8     ecut=    40.00 Ry     beta= 0.50
     Davidson diagonalization with overlap
     ethr =  1.50E-08,  avg # of iterations =  2.1

     total cpu time spent up to now is       91.2 secs

     total energy              =     -90.74480418 Ry
     Harris-Foulkes estimate   =     -90.74480473 Ry
     estimated scf accuracy    <       0.00000125 Ry

     iteration #  9     ecut=    40.00 Ry     beta= 0.50
     Davidson diagonalization with overlap
     ethr =  3.92E-09,  avg # of iterations =  2.1

     total cpu time spent up to now is       93.0 secs

     total energy              =     -90.74480442 Ry
     Harris-Foulkes estimate   =     -90.74480448 Ry
     estimated scf accuracy    <       0.00000031 Ry

     iteration # 10     ecut=    40.00 Ry     beta= 0.50
     Davidson diagonalization with overlap
     ethr =  9.58E-10,  avg # of iterations =  1.3

     total cpu time spent up to now is       94.5 secs

     End of self-consistent calculation

          k = 0.0000 0.0000 0.0000 (  2449 PWs)   bands (ev):

   -14.0785 -12.9059 -12.3462  -8.8395  -8.4782  -4.0226  -3.0782  -1.6758
    -0.7042  -0.5178  -0.2353   0.3187   0.4854   1.1610   3.5400   4.7513
     7.3689   8.8638   9.6930  10.1385

          k =-0.0405 0.0494 0.7981 (  2411 PWs)   bands (ev):

   -12.9689 -11.9322 -11.1782  -8.4268  -7.3364  -4.2333  -4.1511  -2.9756
    -2.8602  -1.9540  -0.7879  -0.4678   0.3708   1.2407   3.7156   4.5078
     5.4368   6.2127   9.4358  10.3781

          k = 0.0810-0.0989-1.5963 (  2410 PWs)   bands (ev):

    -9.9924  -9.7893  -9.6404  -8.6284  -8.0542  -7.1207  -5.6904  -4.6919
    -3.5518  -3.3179  -2.3673   1.8862   2.2373   2.5445   3.0197   3.4399
     4.6371   4.9062   7.4755   9.0825

          k = 0.0246-0.9267-0.0585 (  2420 PWs)   bands (ev):

   -13.9203 -13.1984 -11.7024 -10.1456  -6.8788  -5.6888  -2.2160  -2.0586
    -1.6575  -0.7247  -0.3851   0.8088   0.8383   0.9720   2.8557   7.0437
     7.7283   9.0202   9.1568  12.0468

          k =-0.0159-0.8772 0.7397 (  2413 PWs)   bands (ev):

   -12.8495 -12.0810 -10.7795  -9.1314  -6.5493  -5.0982  -4.1002  -2.7389
    -2.4897  -1.9058  -1.1227  -1.0129  -0.6884   1.9634   3.4074   4.4513
     5.8804   7.2424   8.6305  11.3084

          k = 0.1056-1.0255-1.6548 (  2406 PWs)   bands (ev):

   -10.0011  -9.7261  -9.4690  -8.7662  -7.9622  -7.1527  -5.5517  -4.9718
    -3.5372  -3.2316  -2.4236   1.5371   1.6651   2.2839   3.0492   3.3178
     4.5875   5.1071   7.2078   9.6004

          k =-0.4775 0.0114 0.0273 (  2432 PWs)   bands (ev):

   -13.9683 -13.3582 -11.6625 -10.0703  -6.8350  -5.6248  -1.7676  -1.6285
    -0.9033  -0.7278  -0.2990   0.6457   0.8032   0.8373   2.2369   6.4724
     7.7474   8.6133   9.1243   9.2452

          k =-0.5180 0.0608 0.8254 (  2428 PWs)   bands (ev):

   -12.8944 -12.2242 -10.7342  -9.0775  -6.5197  -5.0459  -4.1106  -2.7689
    -2.4815  -1.9131  -1.0852  -0.5127   0.3484   1.5926   3.0647   4.5109
     5.8265   6.9471   8.1700  10.7003

          k =-0.3965-0.0875-1.5690 (  2434 PWs)   bands (ev):

   -10.0324  -9.7529  -9.5856  -8.7755  -7.9287  -7.1668  -5.5279  -4.9220
    -3.5116  -3.2263  -2.4247   1.8317   2.3203   2.5614   3.0603   3.4005
     4.6207   4.8558   7.4943   9.2143

          k =-0.4529-0.9153-0.0312 (  2410 PWs)   bands (ev):

   -13.9872 -12.8329 -12.3186  -8.9636  -8.5376  -4.0142  -3.0752  -2.6256
    -0.9234  -0.7011  -0.5010   0.3406   0.4946   1.1582   4.4308   5.4369
     7.3510   9.6933   9.9127  11.5948

          k =-0.4934-0.8658 0.7670 (  2421 PWs)   bands (ev):

   -12.8881 -11.8774 -11.1424  -8.5097  -7.4021  -4.2274  -4.1416  -2.9559
    -2.8793  -1.9452  -1.3594  -0.7857   0.1411   0.8990   4.0701   4.7274
     5.8809   6.3064   9.4359  10.7701

          k =-0.3719-1.0141-1.6275 (  2420 PWs)   bands (ev):

    -9.9110  -9.7399  -9.6415  -8.5926  -8.0447  -7.1018  -5.7688  -4.7363
    -3.5577  -3.3221  -2.3694   1.4473   1.7487   2.2802   2.9488   3.4479
     4.7106   4.9323   7.1974   9.8050

     the Fermi energy is     4.7982 ev

!    total energy              =     -90.74480442 Ry
     Harris-Foulkes estimate   =     -90.74480446 Ry
     estimated scf accuracy    <       0.00000005 Ry

     The total energy is the sum of the following terms:

     one-electron contribution =     -41.62605198 Ry
     hartree contribution      =      34.43586179 Ry
     xc contribution           =     -27.63939384 Ry
     ewald contribution        =     -55.91516418 Ry
     smearing contrib. (-TS)   =      -0.00005621 Ry

     convergence has been achieved in  10 iterations

     Forces acting on atoms (cartesian axes, Ry/au):

     atom    1 type  1   force =     0.01588637    0.00420789   -0.00096474
     atom    2 type  1   force =    -0.01171354   -0.00456334    0.00563504
     atom    3 type  1   force =    -0.00596769    0.01938526   -0.03000405
     atom    4 type  1   force =    -0.01040146   -0.01283147    0.02552710
     atom    5 type  1   force =    -0.01137464    0.00527998   -0.00158674
     atom    6 type  1   force =    -0.00569591    0.00738572    0.00256604
     atom    7 type  1   force =     0.01991504   -0.01934020   -0.00254789
     atom    8 type  1   force =     0.00935183    0.00047617    0.00137525

     Total force =     0.061782     Total SCF correction =     0.000407


     Computing stress (Cartesian axis) and pressure

          total   stress  (Ry/bohr**3)                   (kbar)     P=        1.47
   0.00002886  -0.00002009   0.00001514            4.25       -2.95        2.23
  -0.00002009  -0.00007987   0.00006046           -2.95      -11.75        8.89
   0.00001514   0.00006046   0.00008099            2.23        8.89       11.91


     number of scf cycles    =   8
     number of bfgs steps    =   7

     enthalpy old            =     -90.7414801327 Ry
     enthalpy new            =     -90.7447659669 Ry

     CASE: enthalpy_new < enthalpy_old

     new trust radius        =       0.1433587470 bohr
     new conv_thr            =       0.0000003000 Ry

     new unit-cell volume =    554.50460 a.u.^3 (    82.16910 Ang^3 )
     density =      1.94004 g/cm^3

CELL_PARAMETERS (bohr)
  15.534970710   0.248750350   0.739629239
   0.115362094   7.768570354  -0.512185681
   0.249030315  -0.304453587   4.628170324

ATOMIC_POSITIONS (crystal)
C             0.6081108266        0.5041289529        0.3330558177
C             0.7786070211        0.4256689258        0.2413372306
C             0.5218903832        0.5595043778        0.8799007613
C             0.8648735038        0.3738596415        0.6949223589
C             0.1548461837        0.0353261425        0.5558044060
C             0.2364277737       -0.0859032403        1.0211130091
C             0.0218985373        0.2308118227        0.6299184393
C             0.3677497706        0.7106993770        0.9469389771



     Writing output data file ./pp.save/
     NEW-OLD atomic charge density approx. for the potential
     extrapolated charge   31.35465, renormalised to   32.00000

     total cpu time spent up to now is       94.6 secs

     Self-consistent Calculation

     iteration #  1     ecut=    40.00 Ry     beta= 0.50
     Davidson diagonalization with overlap
     ethr =  1.00E-06,  avg # of iterations = 10.4

     total cpu time spent up to now is      101.5 secs

     total energy              =     -90.73635791 Ry
     Harris-Foulkes estimate   =     -91.35198829 Ry
[...]
     Harris-Foulkes estimate   =     -90.73026129 Ry
     estimated scf accuracy    <       0.00034451 Ry

     iteration #  2     ecut=    40.00 Ry     beta= 0.50
     Davidson diagonalization with overlap
     ethr =  1.08E-06,  avg # of iterations =  5.0

     total cpu time spent up to now is     2464.6 secs

     total energy              =     -90.76777440 Ry
     Harris-Foulkes estimate   =     -90.76840791 Ry
     estimated scf accuracy    <       0.00365362 Ry

     iteration #  3     ecut=    40.00 Ry     beta= 0.50
     Davidson diagonalization with overlap
     ethr =  1.08E-06,  avg # of iterations =  4.2

     total cpu time spent up to now is     2479.9 secs

     total energy              =     -90.76809696 Ry
     Harris-Foulkes estimate   =     -90.76812949 Ry
     estimated scf accuracy    <       0.00015906 Ry

     iteration #  4     ecut=    40.00 Ry     beta= 0.50
     Davidson diagonalization with overlap
     ethr =  4.97E-07,  avg # of iterations =  1.0

     total cpu time spent up to now is     2487.7 secs

     total energy              =     -90.76810787 Ry
     Harris-Foulkes estimate   =     -90.76811111 Ry
     estimated scf accuracy    <       0.00001353 Ry

     iteration #  5     ecut=    40.00 Ry     beta= 0.50
     Davidson diagonalization with overlap
     ethr =  4.23E-08,  avg # of iterations =  2.1

     total cpu time spent up to now is     2498.3 secs

     total energy              =     -90.76810862 Ry
     Harris-Foulkes estimate   =     -90.76811080 Ry
     estimated scf accuracy    <       0.00000704 Ry

     iteration #  6     ecut=    40.00 Ry     beta= 0.50
     Davidson diagonalization with overlap
     ethr =  2.20E-08,  avg # of iterations =  2.2

     total cpu time spent up to now is     2509.1 secs

     total energy              =     -90.76811004 Ry
     Harris-Foulkes estimate   =     -90.76811020 Ry
     estimated scf accuracy    <       0.00000076 Ry

     iteration #  7     ecut=    40.00 Ry     beta= 0.50
     Davidson diagonalization with overlap
     ethr =  2.37E-09,  avg # of iterations =  2.2

     total cpu time spent up to now is     2519.6 secs

     total energy              =     -90.76811014 Ry
     Harris-Foulkes estimate   =     -90.76811017 Ry
     estimated scf accuracy    <       0.00000010 Ry

     iteration #  8     ecut=    40.00 Ry     beta= 0.50
     Davidson diagonalization with overlap
     ethr =  3.00E-10,  avg # of iterations =  2.0

     total cpu time spent up to now is     2530.8 secs

     End of self-consistent calculation

          k = 0.0000 0.0000 0.0000 (  2449 PWs)   bands (ev):

   -12.9060 -11.6287 -11.0191  -7.5261  -7.2264  -2.7982  -1.7826  -0.0571
     0.5252   0.5974   0.8646   1.4285   1.6845   2.4309   4.4370   5.4543
     8.5812  10.9140  11.0801  12.5781

          k =-0.0443 0.0291 0.7936 (  2411 PWs)   bands (ev):

   -11.7979 -10.6434  -9.8874  -7.1091  -6.1319  -3.0754  -2.8364  -1.7585
    -1.6060  -0.6542   0.3979   1.1056   1.5770   2.1919   4.9111   5.5349
     6.3488   7.3745  11.0491  12.0469

          k = 0.0887-0.0582-1.5872 (  2410 PWs)   bands (ev):

    -8.8344  -8.6148  -8.3284  -7.4680  -6.7311  -5.8094  -4.3519  -3.5208
    -2.3170  -2.0323  -1.2095   3.1193   3.6789   4.0006   4.2629   4.7275
     5.6151   5.8814   8.3402  10.6244

          k =-0.0737-0.9640-0.0349 (  2420 PWs)   bands (ev):

   -12.5903 -11.8737 -10.5241  -8.9699  -5.7264  -4.4351  -1.3402  -0.9141
    -0.3680   0.5209   0.9094   1.9607   2.1475   2.7243   4.5510   8.4645
     8.9656  10.2694  10.4970  13.6606

          k =-0.1181-0.9349 0.7587 (  2413 PWs)   bands (ev):

   -11.5242 -10.7784  -9.5738  -7.9822  -5.3662  -3.8738  -2.8459  -1.5092
    -1.2352  -0.6392  -0.1234   0.1237   0.3519   3.7343   5.0180   5.6450
     7.1675   8.4518  10.0168  13.1373

          k = 0.0149-1.0222-1.6222 (  2406 PWs)   bands (ev):

    -8.6306  -8.5027  -8.2407  -7.4512  -6.8781  -5.8559  -4.4606  -3.6125
    -2.3510  -2.1239  -1.1801   2.5947   2.6751   3.3630   4.2077   4.6358
     5.8113   6.7245   8.9097  11.3287

          k =-0.5256-0.0539 0.0273 (  2432 PWs)   bands (ev):

   -12.7811 -12.1162 -10.3015  -8.7639  -5.6469  -4.3225  -0.4315  -0.0912
     0.4943   0.5337   0.8739   1.2641   1.9552   2.1550   3.0729   7.6939
     8.9964   9.7165  10.2945  12.0728

          k =-0.5700-0.0248 0.8209 (  2428 PWs)   bands (ev):

   -11.7019 -11.0003  -9.3682  -7.8136  -5.3102  -3.7751  -2.9028  -1.5690
    -1.1752  -0.6516   0.1199   1.0592   1.6807   2.3628   3.9639   5.7169
     7.2312   8.0442   9.3219  13.0154

          k =-0.4370-0.1121-1.5600 (  2434 PWs)   bands (ev):

    -8.7871  -8.5903  -8.4340  -7.4532  -6.7149  -5.7969  -4.3375  -3.5261
    -2.3316  -2.0774  -1.1727   3.3354   3.4646   3.9348   4.3017   4.7289
     5.6407   5.8437   8.4200  10.6079

          k =-0.5994-1.0179-0.0077 (  2410 PWs)   bands (ev):

   -12.6250 -11.6104 -11.0502  -7.7531  -7.4330  -2.7769  -1.8440  -1.7567
     0.5357   0.5497   1.0356   1.4806   1.7119   2.4057   6.0365   7.1084
     8.5439  10.9079  12.2714  12.9876

          k =-0.6437-0.9888 0.7859 (  2421 PWs)   bands (ev):

   -11.5418 -10.6256  -9.9130  -7.2896  -6.3079  -3.0453  -2.8133  -1.7201
    -1.6256  -0.6727  -0.5623   0.3987   1.5562   2.2911   5.4660   6.1401
     7.2945   7.5988  10.9366  12.2651

          k =-0.5107-1.0761-1.5949 (  2420 PWs)   bands (ev):

    -8.5943  -8.4890  -8.3014  -7.5027  -6.7997  -5.8408  -4.5081  -3.6060
    -2.3486  -2.1143  -1.1857   2.3599   2.8268   3.4785   4.1957   4.6814
     6.0156   6.4757   8.7799  11.3678

     the Fermi energy is     5.9963 ev

!    total energy              =     -90.76811015 Ry
     Harris-Foulkes estimate   =     -90.76811016 Ry
     estimated scf accuracy    <       0.00000001 Ry

     The total energy is the sum of the following terms:

     one-electron contribution =     -21.02792936 Ry
     hartree contribution      =      25.59942191 Ry
     xc contribution           =     -27.65576770 Ry
     ewald contribution        =     -67.68572456 Ry
     smearing contrib. (-TS)   =       0.00188956 Ry

     convergence has been achieved in   8 iterations

     Forces acting on atoms (cartesian axes, Ry/au):

     atom    1 type  1   force =    -0.00099612    0.00179300    0.00096791
     atom    2 type  1   force =    -0.00265004    0.00134243   -0.00096495
     atom    3 type  1   force =    -0.00271615    0.00031156    0.00033932
     atom    4 type  1   force =    -0.00051877   -0.00024161   -0.00177377
     atom    5 type  1   force =     0.00415053    0.00099704   -0.00262124
     atom    6 type  1   force =     0.00018110    0.00086604    0.00387688
     atom    7 type  1   force =     0.00310248   -0.00335267   -0.00080892
     atom    8 type  1   force =    -0.00055303   -0.00171579    0.00098478

     Total force =     0.009623     Total SCF correction =     0.000267


     Computing stress (Cartesian axis) and pressure

          total   stress  (Ry/bohr**3)                   (kbar)     P=        2.18
   0.00003385  -0.00001094   0.00001356            4.98       -1.61        1.99
  -0.00001094  -0.00000808   0.00001333           -1.61       -1.19        1.96
   0.00001356   0.00001333   0.00001859            1.99        1.96        2.73


     number of scf cycles    =  44
     number of bfgs steps    =  42

     enthalpy old            =     -90.7678016842 Ry
     enthalpy new            =     -90.7680762067 Ry

     CASE: enthalpy_new < enthalpy_old

     new trust radius        =       0.0135606500 bohr
     new conv_thr            =       0.0000000275 Ry

     new unit-cell volume =    498.82885 a.u.^3 (    73.91881 Ang^3 )
     density =      2.15658 g/cm^3

CELL_PARAMETERS (bohr)
  14.154622389  -1.117280063   0.833738693
  -0.805263255   7.673189743  -0.325568142
   0.260980114  -0.188792019   4.652681008

ATOMIC_POSITIONS (crystal)
C             0.6173159783        0.5464511822        0.3264370672
C             0.7749616581        0.4022013288        0.2504890290
C             0.5352150555        0.6223457080        0.8672519194
C             0.8562991664        0.3241247838        0.7092633318
C             0.1482986421        0.0062474362        0.5592100591
C             0.2347474802       -0.0827820489        1.0147865624
C             0.0057478983        0.1657154633        0.6334530898
C             0.3818181211        0.7697921467        0.9420999413



     Writing output data file ./pp.save/
     NEW-OLD atomic charge density approx. for the potential
     extrapolated charge   31.96604, renormalised to   32.00000

     total cpu time spent up to now is     2531.3 secs

     Self-consistent Calculation

     iteration #  1     ecut=    40.00 Ry     beta= 0.50
     Davidson diagonalization with overlap
     ethr =  1.00E-06,  avg # of iterations =  4.0

     total cpu time spent up to now is     2550.0 secs

     total energy              =     -90.76815681 Ry
     Harris-Foulkes estimate   =     -90.78405354 Ry
     estimated scf accuracy    <       0.00010471 Ry

     iteration #  2     ecut=    40.00 Ry     beta= 0.50
     Davidson diagonalization with overlap
     ethr =  3.27E-07,  avg # of iterations =  3.2

     total cpu time spent up to now is     2564.3 secs

     total energy              =     -90.76812013 Ry
     Harris-Foulkes estimate   =     -90.76828365 Ry
     estimated scf accuracy    <       0.00088716 Ry

     iteration #  3     ecut=    40.00 Ry     beta= 0.50
     Davidson diagonalization with overlap
     ethr =  3.27E-07,  avg # of iterations =  3.1

     total cpu time spent up to now is     2578.1 secs

     total energy              =     -90.76820303 Ry
     Harris-Foulkes estimate   =     -90.76821864 Ry
     estimated scf accuracy    <       0.00007706 Ry

     iteration #  4     ecut=    40.00 Ry     beta= 0.50
     Davidson diagonalization with overlap
     ethr =  2.41E-07,  avg # of iterations =  1.0

     total cpu time spent up to now is     2586.0 secs

     total energy              =     -90.76820889 Ry
     Harris-Foulkes estimate   =     -90.76820991 Ry
     estimated scf accuracy    <       0.00000307 Ry

     iteration #  5     ecut=    40.00 Ry     beta= 0.50
     Davidson diagonalization with overlap
     ethr =  9.59E-09,  avg # of iterations =  2.1

     total cpu time spent up to now is     2597.8 secs

     total energy              =     -90.76820948 Ry
     Harris-Foulkes estimate   =     -90.76820949 Ry
     estimated scf accuracy    <       0.00000023 Ry

     iteration #  6     ecut=    40.00 Ry     beta= 0.50
     Davidson diagonalization with overlap
     ethr =  7.25E-10,  avg # of iterations =  2.6

     total cpu time spent up to now is     2610.2 secs

     total energy              =     -90.76820952 Ry
     Harris-Foulkes estimate   =     -90.76820954 Ry
     estimated scf accuracy    <       0.00000007 Ry

     iteration #  7     ecut=    40.00 Ry     beta= 0.50
     Davidson diagonalization with overlap
     ethr =  2.05E-10,  avg # of iterations =  2.2

     total cpu time spent up to now is     2621.3 secs

     total energy              =     -90.76820953 Ry
     Harris-Foulkes estimate   =     -90.76820954 Ry
     estimated scf accuracy    <       0.00000003 Ry

     iteration #  8     ecut=    40.00 Ry     beta= 0.50
     Davidson diagonalization with overlap
     ethr =  9.06E-11,  avg # of iterations =  2.2

     total cpu time spent up to now is     2632.1 secs

     End of self-consistent calculation

          k = 0.0000 0.0000 0.0000 (  2449 PWs)   bands (ev):

   -12.8839 -11.6151 -10.9970  -7.5098  -7.2045  -2.7848  -1.7621  -0.0204
     0.5488   0.6178   0.8860   1.4398   1.6841   2.4431   4.4440   5.4556
     8.5869  10.9152  11.1138  12.5690

          k =-0.0444 0.0290 0.7932 (  2411 PWs)   bands (ev):

   -11.7765 -10.6302  -9.8670  -7.0938  -6.1127  -3.0594  -2.8159  -1.7613
    -1.5770  -0.6385   0.4094   1.1375   1.5970   2.2137   4.9150   5.5446
     6.3558   7.3836  11.0466  12.0498

          k = 0.0889-0.0580-1.5865 (  2410 PWs)   bands (ev):

    -8.8130  -8.5993  -8.3232  -7.4385  -6.7314  -5.7871  -4.3251  -3.5075
    -2.3036  -2.0187  -1.1902   3.1294   3.7065   4.0197   4.2900   4.7305
     5.6524   5.8742   8.3413  10.6376

          k =-0.0742-0.9668-0.0351 (  2420 PWs)   bands (ev):

   -12.5611 -11.8571 -10.5044  -8.9532  -5.7111  -4.4233  -1.3282  -0.9048
    -0.3482   0.5445   0.9168   1.9551   2.1678   2.7418   4.5628   8.4898
     8.9700  10.2707  10.5219  13.6779

          k =-0.1187-0.9378 0.7582 (  2413 PWs)   bands (ev):

   -11.4963 -10.7628  -9.5552  -7.9666  -5.3541  -3.8594  -2.8213  -1.4957
    -1.2304  -0.6196  -0.1134   0.1362   0.3601   3.7484   5.0317   5.6554
     7.1743   8.4638  10.0408  13.1321

          k = 0.0146-1.0248-1.6216 (  2406 PWs)   bands (ev):

    -8.6136  -8.4789  -8.2190  -7.4529  -6.8500  -5.8341  -4.4546  -3.5976
    -2.3332  -2.1028  -1.1703   2.6156   2.6709   3.3735   4.2073   4.6584
     5.8004   6.7537   8.9257  11.3261

          k =-0.5249-0.0539 0.0273 (  2432 PWs)   bands (ev):

   -12.7572 -12.1025 -10.2803  -8.7463  -5.6274  -4.3059  -0.4102  -0.0543
     0.5169   0.5568   0.8811   1.2767   1.9492   2.1757   3.0877   7.6900
     9.0021   9.7110  10.2965  12.1053

          k =-0.5694-0.0249 0.8205 (  2428 PWs)   bands (ev):

   -11.6791 -10.9874  -9.3483  -7.7974  -5.2951  -3.7573  -2.8800  -1.5542
    -1.1717  -0.6311   0.1325   1.0917   1.7038   2.3752   3.9800   5.7288
     7.2384   8.0376   9.3275  13.0181

          k =-0.4361-0.1119-1.5592 (  2434 PWs)   bands (ev):

    -8.7732  -8.5697  -8.4150  -7.4575  -6.6860  -5.7730  -4.3300  -3.5090
    -2.3114  -2.0547  -1.1617   3.3457   3.4873   3.9505   4.3149   4.7513
     5.6730   5.8481   8.4207  10.6027

          k =-0.5992-1.0207-0.0078 (  2410 PWs)   bands (ev):

   -12.5966 -11.5951 -11.0278  -7.7400  -7.4154  -2.7657  -1.8324  -1.7393
     0.5432   0.5722   1.0560   1.4888   1.7124   2.4173   6.0582   7.1325
     8.5484  10.9088  12.2867  13.0032

          k =-0.6436-0.9917 0.7854 (  2421 PWs)   bands (ev):

   -11.5144 -10.6111  -9.8921  -7.2772  -6.2918  -3.0309  -2.7922  -1.7219
    -1.5986  -0.6581  -0.5524   0.4110   1.5626   2.3048   5.4745   6.1555
     7.3045   7.6186  10.9399  12.2861

          k =-0.5103-1.0787-1.5943 (  2420 PWs)   bands (ev):

    -8.5697  -8.4657  -8.2977  -7.4709  -6.8009  -5.8195  -4.4845  -3.5957
    -2.3368  -2.1019  -1.1676   2.3769   2.8230   3.4903   4.2149   4.6830
     6.0367   6.4708   8.7936  11.3967

     the Fermi energy is     6.0051 ev

!    total energy              =     -90.76820954 Ry
     Harris-Foulkes estimate   =     -90.76820954 Ry
     estimated scf accuracy    <          3.0E-09 Ry

     The total energy is the sum of the following terms:

     one-electron contribution =     -20.72524367 Ry
     hartree contribution      =      25.46213180 Ry
     xc contribution           =     -27.64902249 Ry
     ewald contribution        =     -67.85807046 Ry
     smearing contrib. (-TS)   =       0.00199529 Ry

     convergence has been achieved in   8 iterations

     Forces acting on atoms (cartesian axes, Ry/au):

     atom    1 type  1   force =     0.00002456   -0.00030555    0.00044050
     atom    2 type  1   force =     0.00009192    0.00099644   -0.00074958
     atom    3 type  1   force =    -0.00111416   -0.00046767    0.00054407
     atom    4 type  1   force =     0.00016133   -0.00061437   -0.00147838
     atom    5 type  1   force =     0.00235355    0.00114350    0.00180380
     atom    6 type  1   force =    -0.00004040    0.00151619   -0.00050318
     atom    7 type  1   force =    -0.00058499   -0.00109706   -0.00065409
     atom    8 type  1   force =    -0.00089182   -0.00117148    0.00059686

     Total force =     0.004832     Total SCF correction =     0.000099


     Computing stress (Cartesian axis) and pressure

          total   stress  (Ry/bohr**3)                   (kbar)     P=       -1.08
  -0.00000172   0.00000599   0.00000640           -0.25        0.88        0.94
   0.00000599  -0.00001484   0.00001815            0.88       -2.18        2.67
   0.00000640   0.00001815  -0.00000538            0.94        2.67       -0.79


     number of scf cycles    =  45
     number of bfgs steps    =  43

     enthalpy old            =     -90.7680762067 Ry
     enthalpy new            =     -90.7681756257 Ry

     CASE: enthalpy_new < enthalpy_old

     new trust radius        =       0.0299020436 bohr
     new conv_thr            =       0.0000000100 Ry

     new unit-cell volume =    495.20841 a.u.^3 (    73.38231 Ang^3 )
     density =      2.17235 g/cm^3

CELL_PARAMETERS (bohr)
  14.131860590  -1.157979577   0.841674467
  -0.825573906   7.631497115  -0.318234786
   0.262457974  -0.186074570   4.654310037

ATOMIC_POSITIONS (crystal)
C             0.6170810315        0.5458006705        0.3264894451
C             0.7750333333        0.4033091733        0.2502155794
C             0.5347255738        0.6207272910        0.8673963050
C             0.8566800132        0.3257792588        0.7087281502
C             0.1487138529        0.0066683662        0.5591612491
C             0.2346055634       -0.0831933643        1.0152428376
C             0.0063290926        0.1675796038        0.6332603410
C             0.3812355393        0.7674250006        0.9424970926



     Writing output data file ./pp.save/
     NEW-OLD atomic charge density approx. for the potential
     extrapolated charge   31.76605, renormalised to   32.00000

     total cpu time spent up to now is     2632.5 secs

     Self-consistent Calculation

     iteration #  1     ecut=    40.00 Ry     beta= 0.50
     Davidson diagonalization with overlap
     ethr =  1.00E-06,  avg # of iterations =  5.2

     total cpu time spent up to now is     2655.6 secs

     total energy              =     -90.76709931 Ry
     Harris-Foulkes estimate   =     -90.87078491 Ry
     estimated scf accuracy    <       0.00071498 Ry

     iteration #  2     ecut=    40.00 Ry     beta= 0.50
     Davidson diagonalization with overlap
     ethr =  2.23E-06,  avg # of iterations =  4.4

     total cpu time spent up to now is     2674.9 secs

     total energy              =     -90.76823577 Ry
     Harris-Foulkes estimate   =     -90.76854603 Ry
     estimated scf accuracy    <       0.00092944 Ry

     iteration #  3     ecut=    40.00 Ry     beta= 0.50
     Davidson diagonalization with overlap
     ethr =  2.23E-06,  avg # of iterations =  2.2

     total cpu time spent up to now is     2686.0 secs

     total energy              =     -90.76826780 Ry
     Harris-Foulkes estimate   =     -90.76835036 Ry
     estimated scf accuracy    <       0.00041955 Ry

     iteration #  4     ecut=    40.00 Ry     beta= 0.50
     Davidson diagonalization with overlap
     ethr =  1.31E-06,  avg # of iterations =  1.0

     total cpu time spent up to now is     2694.1 secs

     total energy              =     -90.76827876 Ry
     Harris-Foulkes estimate   =     -90.76831892 Ry
     estimated scf accuracy    <       0.00024012 Ry

     iteration #  5     ecut=    40.00 Ry     beta= 0.50
     Davidson diagonalization with overlap
     ethr =  7.50E-07,  avg # of iterations =  1.0

     total cpu time spent up to now is     2703.1 secs

     total energy              =     -90.76824946 Ry
     Harris-Foulkes estimate   =     -90.76828985 Ry
     estimated scf accuracy    <       0.00009239 Ry

     iteration #  6     ecut=    40.00 Ry     beta= 0.50
     Davidson diagonalization with overlap
     ethr =  2.89E-07,  avg # of iterations =  2.0

     total cpu time spent up to now is     2713.8 secs

     total energy              =     -90.76825324 Ry
     Harris-Foulkes estimate   =     -90.76825860 Ry
     estimated scf accuracy    <       0.00001025 Ry

     iteration #  7     ecut=    40.00 Ry     beta= 0.50
     Davidson diagonalization with overlap
