
     Program PWSCF v.6.5 starts on  7Jul2022 at 19:10: 0 

     This program is part of the open-source Quantum ESPRESSO suite
     for quantum simulation of materials; please cite
         "P. Giannozzi et al., J. Phys.:Condens. Matter 21 395502 (2009);
         "P. Giannozzi et al., J. Phys.:Condens. Matter 29 465901 (2017);
          URL http://www.quantum-espresso.org", 
     in publications or presentations arising from this work. More details at
     http://www.quantum-espresso.org/quote

     Parallel version (MPI), running on    96 processors

     MPI processes distributed on     2 nodes
     R & G space division:  proc/nbgrp/npool/nimage =      96
     Waiting for input...
     Reading input from standard input
     Message from routine read_cards :
     DEPRECATED: no units specified in CELL_PARAMETERS card

     Current dimensions of program PWSCF are:
     Max number of different atomic species (ntypx) = 10
     Max number of k-points (npk) =  40000
     Max angular momentum in pseudopotentials (lmaxx) =  3

     Subspace diagonalization in iterative solution of the eigenvalue problem:
     one sub-group per band group will be used
     scalapack distributed-memory algorithm (size of sub-group:  9*  9 procs)

 
     Parallelization info
     --------------------
     sticks:   dense  smooth     PW     G-vecs:    dense   smooth      PW
     Min          15      15      4                  191      191      32
     Max          16      16      5                  194      194      37
     Sum        1461    1461    463                18431    18431    3277
 


     bravais-lattice index     =            0
     lattice parameter (alat)  =      14.5995  a.u.
     unit-cell volume          =     538.1839 (a.u.)^3
     number of atoms/cell      =            8
     number of atomic types    =            1
     number of electrons       =        32.00
     number of Kohn-Sham states=           20
     kinetic-energy cutoff     =      40.0000  Ry
     charge density cutoff     =     160.0000  Ry
     convergence threshold     =      1.0E-06
     mixing beta               =       0.5000
     number of iterations used =            8  plain     mixing
     Exchange-correlation=  SLA  PW   PBE  PBE
                           (   1   4   3   4   0   0   0)
     nstep                     =          250


     celldm(1)=  14.599469  celldm(2)=   0.000000  celldm(3)=   0.000000
     celldm(4)=   0.000000  celldm(5)=   0.000000  celldm(6)=   0.000000

     crystal axes: (cart. coord. in units of alat)
               a(1) = (   0.999947   0.010261   0.000007 )  
               a(2) = (   0.032316   0.541109   0.000137 )  
               a(3) = (  -0.000041  -0.000137   0.319834 )  

     reciprocal axes: (cart. coord. in units 2 pi/alat)
               b(1) = (  1.000666 -0.059762  0.000103 )  
               b(2) = ( -0.018975  1.849190  0.000790 )  
               b(3) = ( -0.000013 -0.000791  3.126626 )  


     PseudoPot. # 1 for C  read from file:
     ./C.pbe-van_bm.upf
     MD5 check sum: 1a69bf6b8db32088f5b2163dbdb77a27
     Pseudo is Ultrasoft, Zval =  4.0
     Generated by new atomic code, or converted to UPF format
     Using radial grid of  721 points,  4 beta functions with: 
                l(1) =   0
                l(2) =   0
                l(3) =   1
                l(4) =   1
     Q(r) pseudized with  8 coefficients,  rinner =    0.800   0.800   0.800


     atomic species   valence    mass     pseudopotential
        C              4.00    12.00000     C ( 1.00)

     No symmetry found



   Cartesian axes

     site n.     atom                  positions (alat units)
         1           C   tau(   1) = (   0.3275765   0.1916844  -0.0116304  )
         2           C   tau(   2) = (   0.2621698   0.2622652   0.1473144  )
         3           C   tau(   3) = (   0.7107002   0.4833328   0.0824597  )
         4           C   tau(   4) = (   0.8835134   0.4384789   0.0654487  )
         5           C   tau(   5) = (   0.6263082   0.5208559   0.2449766  )
         6           C   tau(   6) = (   0.4465708   0.0684953  -0.0458497  )
         7           C   tau(   7) = (   0.1446075   0.3864379   0.1896445  )
         8           C   tau(   8) = (   0.9738440   0.4229512   0.2232942  )

     number of k points=    12  Marzari-Vanderbilt smearing, width (Ry)=  0.0200
                       cart. coord. in units 2pi/alat
        k(    1) = (   0.0000000   0.0000000   0.0000000), wk =   0.1250000
        k(    2) = (  -0.0000033  -0.0001977   0.7816565), wk =   0.2500000
        k(    3) = (   0.0000067   0.0003954  -1.5633129), wk =   0.1250000
        k(    4) = (   0.0094874  -0.9245952  -0.0003948), wk =   0.1250000
        k(    5) = (   0.0094841  -0.9247929   0.7812617), wk =   0.2500000
        k(    6) = (   0.0094941  -0.9241998  -1.5637078), wk =   0.1250000
        k(    7) = (  -0.5003329   0.0298810  -0.0000515), wk =   0.1250000
        k(    8) = (  -0.5003363   0.0296833   0.7816050), wk =   0.2500000
        k(    9) = (  -0.5003263   0.0302764  -1.5633644), wk =   0.1250000
        k(   10) = (  -0.4908455  -0.8947142  -0.0004463), wk =   0.1250000
        k(   11) = (  -0.4908488  -0.8949119   0.7812102), wk =   0.2500000
        k(   12) = (  -0.4908388  -0.8943188  -1.5637592), wk =   0.1250000

     Dense  grid:    18431 G-vectors     FFT dimensions: (  60,  32,  20)

     Estimated max dynamical RAM per process >       2.55 MB

     Estimated total dynamical RAM >     244.42 MB

     Initial potential from superposition of free atoms

     starting charge   31.99968, renormalised to   32.00000
     Starting wfcs are   32 randomized atomic wfcs

     total cpu time spent up to now is        0.6 secs

     Self-consistent Calculation

     iteration #  1     ecut=    40.00 Ry     beta= 0.50
     Davidson diagonalization with overlap
     ethr =  1.00E-02,  avg # of iterations =  2.3

     total cpu time spent up to now is        1.2 secs

     total energy              =     -90.57174372 Ry
     Harris-Foulkes estimate   =     -90.96638169 Ry
     estimated scf accuracy    <       0.78378180 Ry

     iteration #  2     ecut=    40.00 Ry     beta= 0.50
     Davidson diagonalization with overlap
     ethr =  2.45E-03,  avg # of iterations =  2.0

     total cpu time spent up to now is        1.9 secs

     total energy              =     -90.58424382 Ry
     Harris-Foulkes estimate   =     -90.65699935 Ry
     estimated scf accuracy    <       0.12670695 Ry

     iteration #  3     ecut=    40.00 Ry     beta= 0.50
     Davidson diagonalization with overlap
     ethr =  3.96E-04,  avg # of iterations =  4.9

     total cpu time spent up to now is        2.9 secs

     total energy              =     -90.53724936 Ry
     Harris-Foulkes estimate   =     -90.74149483 Ry
     estimated scf accuracy    <       1.04714235 Ry

     iteration #  4     ecut=    40.00 Ry     beta= 0.50
     Davidson diagonalization with overlap
     ethr =  3.96E-04,  avg # of iterations =  4.2

     total cpu time spent up to now is        3.8 secs

     total energy              =     -90.62827892 Ry
     Harris-Foulkes estimate   =     -90.63550271 Ry
     estimated scf accuracy    <       0.02182925 Ry

     iteration #  5     ecut=    40.00 Ry     beta= 0.50
     Davidson diagonalization with overlap
     ethr =  6.82E-05,  avg # of iterations =  2.4

     total cpu time spent up to now is        4.4 secs

     total energy              =     -90.63144113 Ry
     Harris-Foulkes estimate   =     -90.63273254 Ry
     estimated scf accuracy    <       0.00430636 Ry

     iteration #  6     ecut=    40.00 Ry     beta= 0.50
     Davidson diagonalization with overlap
     ethr =  1.35E-05,  avg # of iterations =  3.2

     total cpu time spent up to now is        5.0 secs

     total energy              =     -90.63221458 Ry
     Harris-Foulkes estimate   =     -90.63252566 Ry
     estimated scf accuracy    <       0.00132061 Ry

     iteration #  7     ecut=    40.00 Ry     beta= 0.50
     Davidson diagonalization with overlap
     ethr =  4.13E-06,  avg # of iterations =  3.0

     total cpu time spent up to now is        5.7 secs

     total energy              =     -90.63235008 Ry
     Harris-Foulkes estimate   =     -90.63239852 Ry
     estimated scf accuracy    <       0.00022785 Ry

     iteration #  8     ecut=    40.00 Ry     beta= 0.50
     Davidson diagonalization with overlap
     ethr =  7.12E-07,  avg # of iterations =  1.6

     total cpu time spent up to now is        6.1 secs

     total energy              =     -90.63237504 Ry
     Harris-Foulkes estimate   =     -90.63237844 Ry
     estimated scf accuracy    <       0.00001748 Ry

     iteration #  9     ecut=    40.00 Ry     beta= 0.50
     Davidson diagonalization with overlap
     ethr =  5.46E-08,  avg # of iterations =  2.7

     total cpu time spent up to now is        6.8 secs

     total energy              =     -90.63237941 Ry
     Harris-Foulkes estimate   =     -90.63237997 Ry
     estimated scf accuracy    <       0.00000222 Ry

     iteration # 10     ecut=    40.00 Ry     beta= 0.50
     Davidson diagonalization with overlap
     ethr =  6.93E-09,  avg # of iterations =  2.3

     total cpu time spent up to now is        7.5 secs

     total energy              =     -90.63237962 Ry
     Harris-Foulkes estimate   =     -90.63238000 Ry
     estimated scf accuracy    <       0.00000145 Ry

     iteration # 11     ecut=    40.00 Ry     beta= 0.50
     Davidson diagonalization with overlap
     ethr =  4.53E-09,  avg # of iterations =  1.5

     total cpu time spent up to now is        8.0 secs

     End of self-consistent calculation

          k = 0.0000 0.0000 0.0000 (  2321 PWs)   bands (ev):

   -13.9314 -12.7584 -12.1132  -8.2875  -8.1341  -3.3507  -2.3024  -1.3763
    -0.4745  -0.2645   0.0837   0.3310   1.1035   1.5382   4.0860   5.0437
     7.5935   9.3786   9.6095  10.7104

          k =-0.0000-0.0002 0.7817 (  2281 PWs)   bands (ev):

   -12.8568 -11.7087 -11.1009  -7.5359  -7.3515  -4.1162  -3.5896  -3.1257
    -2.2229  -1.3278  -0.3422  -0.0171   0.9305   1.2567   4.2992   5.5066
     5.6151   6.9903   9.7417  10.7980

          k = 0.0000 0.0004-1.5633 (  2286 PWs)   bands (ev):

   -10.2075  -9.9093  -8.7454  -8.6768  -7.7776  -6.9670  -5.0368  -4.5753
    -3.2948  -2.8789  -1.5498   2.3126   2.4781   3.0904   4.1284   4.2404
     5.0038   5.6524   7.9795   8.5508

          k = 0.0095-0.9246-0.0004 (  2306 PWs)   bands (ev):

   -13.6865 -13.1703 -11.3306  -9.9531  -6.3280  -4.9622  -1.9709  -1.8627
    -1.0327  -0.4404   0.2917   0.7786   1.3981   1.6163   3.4972   6.9567
     8.0580   8.8642  10.1070  12.7443

          k = 0.0095-0.9248 0.7813 (  2301 PWs)   bands (ev):

   -12.6177 -12.1274 -10.3247  -9.0607  -5.7880  -4.7792  -3.8424  -2.9126
    -2.3494  -0.9463  -0.7409  -0.6559  -0.2688   2.7739   3.8361   5.2366
     6.4901   7.7135   8.9158  11.6085

          k = 0.0095-0.9242-1.5637 (  2292 PWs)   bands (ev):

   -10.0812  -9.6914  -9.3931  -8.1314  -7.6615  -6.6793  -6.0571  -4.3455
    -3.2895  -2.3043  -1.9262   1.5243   2.2002   2.7126   3.4349   4.7592
     4.9986   5.8713   7.8745   9.0783

          k =-0.5003 0.0299-0.0001 (  2304 PWs)   bands (ev):

   -13.7247 -13.3676 -11.2588  -9.8181  -6.2891  -4.9311  -1.4530  -1.1020
    -0.5600  -0.4484   0.2737   0.7163   1.1207   1.4320   2.4870   6.6661
     8.0855   8.7662   9.6720  10.1255

          k =-0.5003 0.0297 0.7816 (  2290 PWs)   bands (ev):

   -12.6526 -12.3105 -10.2580  -8.9464  -5.7649  -4.7660  -3.8675  -2.9187
    -2.3500  -0.9132  -0.5044  -0.1014   0.5976   2.2889   3.0833   5.3065
     6.5152   7.5659   8.7154  11.1464

          k =-0.5003 0.0303-1.5634 (  2300 PWs)   bands (ev):

   -10.1776  -9.7270  -9.4601  -8.2101  -7.6046  -6.6511  -5.9788  -4.2899
    -3.3030  -2.2509  -1.9105   2.3090   2.4540   3.1014   3.5181   4.6068
     5.2469   5.6895   7.8971   8.5139

          k =-0.4908-0.8947-0.0004 (  2314 PWs)   bands (ev):

   -13.8057 -12.7076 -12.1049  -8.4354  -8.2452  -3.2935  -2.5353  -2.1521
    -0.5992  -0.4520   0.1080   0.2637   1.1376   1.5267   5.1935   5.7479
     7.5678   9.6089  10.3977  11.9730

          k =-0.4908-0.8949 0.7812 (  2303 PWs)   bands (ev):

   -12.7393 -11.6629 -11.0936  -7.6526  -7.4446  -4.1074  -3.5505  -3.0932
    -2.2181  -1.3436  -1.1850  -0.2170   0.7075   1.2051   4.7210   5.6404
     6.2989   6.9751   9.6591  10.9255

          k =-0.4908-0.8943-1.5638 (  2308 PWs)   bands (ev):

   -10.0883  -9.8551  -8.7640  -8.6749  -7.7214  -6.9469  -5.1315  -4.6303
    -3.3118  -2.9840  -1.5291   1.4801   2.1156   2.9381   4.0889   4.3221
     5.2173   5.3355   7.6928   9.3329

     the Fermi energy is     5.5180 ev

!    total energy              =     -90.63237982 Ry
     Harris-Foulkes estimate   =     -90.63237984 Ry
     estimated scf accuracy    <       0.00000005 Ry

     The total energy is the sum of the following terms:

     one-electron contribution =     -40.17801617 Ry
     hartree contribution      =      34.27593561 Ry
     xc contribution           =     -27.81424109 Ry
     ewald contribution        =     -56.91589967 Ry
     smearing contrib. (-TS)   =      -0.00015850 Ry

     convergence has been achieved in  11 iterations

     Forces acting on atoms (cartesian axes, Ry/au):

     atom    1 type  1   force =     0.02360731   -0.02122194   -0.03771910
     atom    2 type  1   force =    -0.01123994    0.02053561    0.04298766
     atom    3 type  1   force =    -0.00237343   -0.00055929   -0.01206586
     atom    4 type  1   force =    -0.00814919    0.00328230    0.01751957
     atom    5 type  1   force =     0.01487217   -0.02699920    0.00167133
     atom    6 type  1   force =    -0.03208307    0.02610637    0.00876282
     atom    7 type  1   force =     0.03503599   -0.01462520   -0.01079243
     atom    8 type  1   force =    -0.01966984    0.01348136   -0.01036399

     Total force =     0.101669     Total SCF correction =     0.000405


     Computing stress (Cartesian axis) and pressure

          total   stress  (Ry/bohr**3)                   (kbar)     P=       92.77
   0.00150327  -0.00070104   0.00153324          221.14     -103.13      225.55
  -0.00070104   0.00029856  -0.00085560         -103.13       43.92     -125.86
   0.00153324  -0.00085560   0.00009004          225.55     -125.86       13.25


     BFGS Geometry Optimization

     number of scf cycles    =   1
     number of bfgs steps    =   0

     enthalpy new            =     -90.6323432321 Ry

     new trust radius        =       0.2620001007 bohr
     new conv_thr            =       0.0000010000 Ry

     new unit-cell volume =    562.63892 a.u.^3 (    83.37449 Ang^3 )
     density =      1.91200 g/cm^3

CELL_PARAMETERS (bohr)
  15.144698061  -0.104939817   0.556480265
   0.351153968   7.950540059  -0.148888839
   0.178395747  -0.101882337   4.679922667

ATOMIC_POSITIONS (crystal)
C             0.3180426797        0.3455152745       -0.0445968044
C             0.2458318420        0.4827380049        0.4695911470
C             0.6821365263        0.8802855914        0.2548450047
C             0.8573321319        0.7945452803        0.2080268255
C             0.5967528886        0.9480320020        0.7658893818
C             0.4404641831        0.1214998434       -0.1415397377
C             0.1240902019        0.7101044306        0.5903294498
C             0.9478355465        0.7655475729        0.6955897334



     Writing output data file ./pp.save/
     NEW-OLD atomic charge density approx. for the potential
     extrapolated charge   33.39086, renormalised to   32.00000

     total cpu time spent up to now is        8.2 secs

     Self-consistent Calculation

     iteration #  1     ecut=    40.00 Ry     beta= 0.50
     Davidson diagonalization with overlap
     c_bands:  1 eigenvalues not converged
     ethr =  1.00E-06,  avg # of iterations = 10.9

     total cpu time spent up to now is       10.6 secs

     total energy              =     -90.63360496 Ry
     Harris-Foulkes estimate   =     -89.36536448 Ry
     estimated scf accuracy    <       0.06201309 Ry

     iteration #  2     ecut=    40.00 Ry     beta= 0.50
     Davidson diagonalization with overlap
     ethr =  1.94E-04,  avg # of iterations =  5.2

     total cpu time spent up to now is       11.7 secs

     total energy              =     -90.67311128 Ry
     Harris-Foulkes estimate   =     -90.74578527 Ry
     estimated scf accuracy    <       0.32078090 Ry

     iteration #  3     ecut=    40.00 Ry     beta= 0.50
     Davidson diagonalization with overlap
     ethr =  1.94E-04,  avg # of iterations =  3.2

     total cpu time spent up to now is       12.4 secs

     total energy              =     -90.69818282 Ry
     Harris-Foulkes estimate   =     -90.72249570 Ry
     estimated scf accuracy    <       0.12944750 Ry

     iteration #  4     ecut=    40.00 Ry     beta= 0.50
     Davidson diagonalization with overlap
     ethr =  1.94E-04,  avg # of iterations =  1.4

     total cpu time spent up to now is       12.9 secs

     total energy              =     -90.70833966 Ry
     Harris-Foulkes estimate   =     -90.71108993 Ry
     estimated scf accuracy    <       0.01413979 Ry

     iteration #  5     ecut=    40.00 Ry     beta= 0.50
     Davidson diagonalization with overlap
     ethr =  4.42E-05,  avg # of iterations =  2.3

     total cpu time spent up to now is       13.5 secs

     total energy              =     -90.70744048 Ry
     Harris-Foulkes estimate   =     -90.70941463 Ry
     estimated scf accuracy    <       0.00515202 Ry

     iteration #  6     ecut=    40.00 Ry     beta= 0.50
     Davidson diagonalization with overlap
     ethr =  1.61E-05,  avg # of iterations =  2.7

     total cpu time spent up to now is       14.1 secs

     total energy              =     -90.70779372 Ry
     Harris-Foulkes estimate   =     -90.70807237 Ry
     estimated scf accuracy    <       0.00076626 Ry

     iteration #  7     ecut=    40.00 Ry     beta= 0.50
     Davidson diagonalization with overlap
     ethr =  2.39E-06,  avg # of iterations =  3.8

     total cpu time spent up to now is       15.0 secs

     total energy              =     -90.70790367 Ry
     Harris-Foulkes estimate   =     -90.70792229 Ry
     estimated scf accuracy    <       0.00010836 Ry

     iteration #  8     ecut=    40.00 Ry     beta= 0.50
     Davidson diagonalization with overlap
     ethr =  3.39E-07,  avg # of iterations =  1.9

     total cpu time spent up to now is       15.5 secs

     total energy              =     -90.70791610 Ry
     Harris-Foulkes estimate   =     -90.70791778 Ry
     estimated scf accuracy    <       0.00000667 Ry

     iteration #  9     ecut=    40.00 Ry     beta= 0.50
     Davidson diagonalization with overlap
     ethr =  2.08E-08,  avg # of iterations =  2.8

     total cpu time spent up to now is       16.3 secs

     total energy              =     -90.70791726 Ry
     Harris-Foulkes estimate   =     -90.70791868 Ry
     estimated scf accuracy    <       0.00000424 Ry

     iteration # 10     ecut=    40.00 Ry     beta= 0.50
     Davidson diagonalization with overlap
     ethr =  1.33E-08,  avg # of iterations =  2.0

     total cpu time spent up to now is       16.9 secs

     total energy              =     -90.70791795 Ry
     Harris-Foulkes estimate   =     -90.70791837 Ry
     estimated scf accuracy    <       0.00000207 Ry

     iteration # 11     ecut=    40.00 Ry     beta= 0.50
     Davidson diagonalization with overlap
     ethr =  6.48E-09,  avg # of iterations =  1.2

     total cpu time spent up to now is       17.3 secs

     End of self-consistent calculation

          k = 0.0000 0.0000 0.0000 (  2321 PWs)   bands (ev):

   -13.8592 -12.8362 -12.0663  -8.7336  -8.1173  -3.7713  -3.0318  -1.4577
    -0.5315  -0.4692  -0.0066   0.1633   0.8495   1.2360   3.3263   4.7055
     7.3852   9.0407   9.5548   9.8120

          k =-0.0286 0.0159 0.7813 (  2281 PWs)   bands (ev):

   -12.7753 -11.8059 -11.0135  -8.1233  -7.2247  -4.3198  -3.6625  -3.1871
    -2.5175  -1.8128  -0.6551  -0.1655   0.5859   1.2283   3.5668   4.7696
     5.3589   6.3286   9.0573  10.4044

          k = 0.0572-0.0318-1.5627 (  2286 PWs)   bands (ev):

    -9.9924  -9.6082  -9.3491  -8.6734  -7.8662  -7.0272  -5.1138  -4.9686
    -3.2271  -3.0956  -2.1268   2.0338   2.3656   2.8166   3.3428   3.3874
     4.6836   5.1095   7.4575   8.1379

          k =-0.0056-0.9183-0.0198 (  2306 PWs)   bands (ev):

   -13.6441 -13.1183 -11.4416 -10.0596  -6.5356  -5.5416  -2.0934  -1.9779
    -1.5513  -0.5137  -0.1830   0.7751   1.0810   1.1933   3.1017   6.5091
     7.6672   8.9861   9.3190  11.5601

          k =-0.0342-0.9024 0.7616 (  2301 PWs)   bands (ev):

   -12.5774 -12.0551 -10.4520  -9.1645  -6.1617  -5.0041  -3.9405  -2.8279
    -2.4948  -1.5109  -1.0038  -0.8771  -0.4804   2.2363   3.5672   4.5588
     5.8501   7.1118   8.4752  10.9731

          k = 0.0516-0.9501-1.5824 (  2292 PWs)   bands (ev):

    -9.7576  -9.5811  -9.5189  -8.5510  -7.8016  -6.8658  -5.9649  -4.4909
    -3.3373  -2.8843  -2.2655   1.5052   1.8476   2.4311   2.8367   3.8126
     4.4799   5.4078   7.3085   8.7052

          k =-0.4825 0.0217 0.0189 (  2304 PWs)   bands (ev):

   -13.6866 -13.3200 -11.3791  -9.9090  -6.5072  -5.4915  -1.6528  -1.5258
    -0.7015  -0.5223  -0.1561   0.7492   0.8000   1.0861   2.0655   6.0523
     7.7141   8.7316   9.2037   9.5570

          k =-0.5111 0.0376 0.8002 (  2290 PWs)   bands (ev):

   -12.6216 -12.2368 -10.3927  -9.0403  -6.1441  -4.9657  -3.9692  -2.8270
    -2.5153  -1.5067  -0.8941  -0.2489   0.5136   1.7836   2.8498   4.6588
     5.8034   6.8855   8.1677  10.7257

          k =-0.4253-0.0101-1.5438 (  2300 PWs)   bands (ev):

    -9.8134  -9.7110  -9.5560  -8.5954  -7.7487  -6.8570  -5.8863  -4.4080
    -3.3369  -2.8692  -2.2430   2.0094   2.3755   2.8302   2.9048   3.7675
     4.7360   5.1439   7.4180   8.1042

          k =-0.4882-0.8966-0.0009 (  2314 PWs)   bands (ev):

   -13.7350 -12.7715 -12.0550  -8.9170  -8.2040  -3.7127  -2.9927  -2.4985
    -0.8724  -0.5262  -0.0842   0.1270   0.8767   1.2283   4.4807   5.4701
     7.3411   9.4973   9.6136  11.1600

          k =-0.5168-0.8807 0.7804 (  2303 PWs)   bands (ev):

   -12.6600 -11.7459 -11.0042  -8.2549  -7.3111  -4.3106  -3.6274  -3.1487
    -2.5138  -1.8017  -1.3018  -0.5972   0.3140   1.1269   4.0698   4.8405
     5.9856   6.4375   8.9876  10.4546

          k =-0.4310-0.9284-1.5636 (  2308 PWs)   bands (ev):

    -9.8673  -9.5491  -9.3291  -8.6726  -7.8489  -7.0107  -5.2090  -5.0663
    -3.2777  -3.1137  -2.1058   1.4205   1.9521   2.4359   3.2943   3.3669
     4.8521   4.9773   7.1953   8.8752

     the Fermi energy is     4.9212 ev

!    total energy              =     -90.70791812 Ry
     Harris-Foulkes estimate   =     -90.70791817 Ry
     estimated scf accuracy    <       0.00000007 Ry

     The total energy is the sum of the following terms:

     one-electron contribution =     -39.19815767 Ry
     hartree contribution      =      33.31558548 Ry
     xc contribution           =     -27.51341634 Ry
     ewald contribution        =     -57.31215580 Ry
     smearing contrib. (-TS)   =       0.00022620 Ry

     convergence has been achieved in  11 iterations

     Forces acting on atoms (cartesian axes, Ry/au):

     atom    1 type  1   force =     0.00646753    0.00758663   -0.03906861
     atom    2 type  1   force =     0.00343480   -0.00114918    0.04903388
     atom    3 type  1   force =     0.01109516    0.00587654   -0.04397334
     atom    4 type  1   force =    -0.01262182    0.00949577    0.03014347
     atom    5 type  1   force =    -0.02489123    0.01570013    0.06952355
     atom    6 type  1   force =     0.05325021   -0.01699092    0.00060537
     atom    7 type  1   force =    -0.05104463   -0.02757319   -0.00441086
     atom    8 type  1   force =     0.01430998    0.00705422   -0.06185347

     Total force =     0.153566     Total SCF correction =     0.000438


     Computing stress (Cartesian axis) and pressure

          total   stress  (Ry/bohr**3)                   (kbar)     P=      -42.46
  -0.00035052   0.00009422   0.00042835          -51.56       13.86       63.01
   0.00009422  -0.00013402  -0.00029593           13.86      -19.71      -43.53
   0.00042835  -0.00029593  -0.00038127           63.01      -43.53      -56.09


     number of scf cycles    =   2
     number of bfgs steps    =   1

     enthalpy old            =     -90.6323432321 Ry
     enthalpy new            =     -90.7078798741 Ry

     CASE: enthalpy_new < enthalpy_old

     new trust radius        =       0.1479921286 bohr
     new conv_thr            =       0.0000006952 Ry

     new unit-cell volume =    554.37622 a.u.^3 (    82.15008 Ang^3 )
     density =      1.94049 g/cm^3

CELL_PARAMETERS (bohr)
  15.168411093  -0.144456137   0.916911985
   0.330072101   7.935985780  -0.260543005
   0.297225638  -0.175767806   4.627613890

ATOMIC_POSITIONS (crystal)
C             0.3189465246        0.3458302221       -0.0566746245
C             0.2459920991        0.4832501538        0.4845132939
C             0.6828085830        0.8812030856        0.2433940982
C             0.8561659408        0.7960142378        0.2163959761
C             0.5952288544        0.9490827835        0.7825952054
C             0.4441207443        0.1199039964       -0.1402047475
C             0.1209185975        0.7057268832        0.5881836316
C             0.9483046563        0.7672566376        0.6799321668



     Writing output data file ./pp.save/
     NEW-OLD atomic charge density approx. for the potential
     extrapolated charge   31.52306, renormalised to   32.00000

     total cpu time spent up to now is       17.4 secs

     Self-consistent Calculation

     iteration #  1     ecut=    40.00 Ry     beta= 0.50
     Davidson diagonalization with overlap
     ethr =  1.00E-06,  avg # of iterations = 10.3

     total cpu time spent up to now is       19.9 secs

     total energy              =     -90.71948426 Ry
     Harris-Foulkes estimate   =     -91.19245289 Ry
     estimated scf accuracy    <       0.01077509 Ry

     iteration #  2     ecut=    40.00 Ry     beta= 0.50
     Davidson diagonalization with overlap
     ethr =  3.37E-05,  avg # of iterations =  3.9

     total cpu time spent up to now is       20.9 secs

     total energy              =     -90.72166200 Ry
     Harris-Foulkes estimate   =     -90.73289639 Ry
     estimated scf accuracy    <       0.05090180 Ry

     iteration #  3     ecut=    40.00 Ry     beta= 0.50
     Davidson diagonalization with overlap
     ethr =  3.37E-05,  avg # of iterations =  3.0

     total cpu time spent up to now is       21.7 secs

     total energy              =     -90.72647881 Ry
     Harris-Foulkes estimate   =     -90.73045950 Ry
     estimated scf accuracy    <       0.02300076 Ry

     iteration #  4     ecut=    40.00 Ry     beta= 0.50
     Davidson diagonalization with overlap
     ethr =  3.37E-05,  avg # of iterations =  1.1

     total cpu time spent up to now is       22.2 secs

     total energy              =     -90.72818416 Ry
     Harris-Foulkes estimate   =     -90.72853466 Ry
     estimated scf accuracy    <       0.00126833 Ry

     iteration #  5     ecut=    40.00 Ry     beta= 0.50
     Davidson diagonalization with overlap
     ethr =  3.96E-06,  avg # of iterations =  3.4

     total cpu time spent up to now is       23.1 secs

     total energy              =     -90.72824720 Ry
     Harris-Foulkes estimate   =     -90.72839144 Ry
     estimated scf accuracy    <       0.00042073 Ry

     iteration #  6     ecut=    40.00 Ry     beta= 0.50
     Davidson diagonalization with overlap
     ethr =  1.31E-06,  avg # of iterations =  2.8

     total cpu time spent up to now is       23.9 secs

     total energy              =     -90.72831091 Ry
     Harris-Foulkes estimate   =     -90.72831503 Ry
     estimated scf accuracy    <       0.00001417 Ry

     iteration #  7     ecut=    40.00 Ry     beta= 0.50
     Davidson diagonalization with overlap
     ethr =  4.43E-08,  avg # of iterations =  2.7

     total cpu time spent up to now is       24.7 secs

     total energy              =     -90.72831392 Ry
     Harris-Foulkes estimate   =     -90.72831611 Ry
     estimated scf accuracy    <       0.00000615 Ry

     iteration #  8     ecut=    40.00 Ry     beta= 0.50
     Davidson diagonalization with overlap
     ethr =  1.92E-08,  avg # of iterations =  1.6

     total cpu time spent up to now is       25.3 secs

     total energy              =     -90.72831467 Ry
     Harris-Foulkes estimate   =     -90.72831482 Ry
     estimated scf accuracy    <       0.00000097 Ry

     iteration #  9     ecut=    40.00 Ry     beta= 0.50
     Davidson diagonalization with overlap
     ethr =  3.03E-09,  avg # of iterations =  2.2

     total cpu time spent up to now is       26.1 secs

     End of self-consistent calculation

          k = 0.0000 0.0000 0.0000 (  2321 PWs)   bands (ev):

   -13.8684 -12.7607 -12.1390  -8.6166  -8.2685  -3.8461  -2.9174  -1.4412
    -0.4005  -0.2800   0.0349   0.4551   0.6771   1.4948   3.5462   4.7191
     7.6134   9.1263   9.8626  10.0780

          k =-0.0477 0.0280 0.7928 (  2281 PWs)   bands (ev):

   -12.7513 -11.7822 -10.9707  -8.2105  -7.1043  -4.0855  -3.7550  -2.9792
    -2.5118  -1.7002  -0.6058  -0.1409   0.5983   1.3621   3.7214   4.7846
     5.5451   6.3833   9.3958  10.5609

          k = 0.0953-0.0560-1.5857 (  2286 PWs)   bands (ev):

    -9.8654  -9.5036  -9.4252  -8.4929  -7.7300  -6.8607  -5.3742  -4.8114
    -3.2312  -2.9256  -2.1989   2.0758   2.4295   2.9176   3.2246   3.5354
     4.8141   5.2451   7.6677   8.6469

          k =-0.0067-0.9207-0.0345 (  2306 PWs)   bands (ev):

   -13.6659 -13.0687 -11.4785 -10.0364  -6.6003  -5.5516  -2.0610  -1.9429
    -1.4503  -0.3116  -0.1075   0.9442   1.2342   1.2380   3.1545   6.7364
     7.9614   9.2860   9.3749  11.9665

          k =-0.0543-0.8927 0.7583 (  2301 PWs)   bands (ev):

   -12.5912 -11.9466 -10.5493  -9.0096  -6.3055  -4.8695  -3.7894  -2.5830
    -2.2255  -1.8034  -0.9827  -0.7369  -0.4174   2.2448   3.7130   4.6643
     5.9404   7.2965   8.7336  11.3188

          k = 0.0886-0.9767-1.6202 (  2292 PWs)   bands (ev):

    -9.7622  -9.5476  -9.2718  -8.4456  -7.7913  -6.8532  -5.5939  -4.5271
    -3.3838  -3.2742  -1.9324   1.6146   1.8397   2.5740   3.0427   3.5922
     4.8224   5.4530   7.4233   9.2307

          k =-0.4830 0.0211 0.0318 (  2304 PWs)   bands (ev):

   -13.7106 -13.2715 -11.4105  -9.9028  -6.5582  -5.4975  -1.5580  -1.4987
    -0.6346  -0.3201  -0.0898   0.8184   0.9334   1.2320   2.1819   6.2490
     8.0064   8.9343   9.2981   9.6280

          k =-0.5306 0.0491 0.8247 (  2290 PWs)   bands (ev):

   -12.6442 -12.1212 -10.4844  -8.9017  -6.2708  -4.8247  -3.8156  -2.6013
    -2.2461  -1.8124  -0.7635  -0.2261   0.6033   1.7640   3.0608   4.7750
     5.8886   7.0019   8.3644  10.8897

          k =-0.3876-0.0349-1.5539 (  2300 PWs)   bands (ev):

    -9.8044  -9.6485  -9.3509  -8.4672  -7.7443  -6.8623  -5.5274  -4.4457
    -3.3610  -3.2510  -1.9392   2.0547   2.4462   2.9720   3.0612   3.6425
     4.8391   5.2064   7.6774   8.6298

          k =-0.4896-0.8996-0.0027 (  2314 PWs)   bands (ev):

   -13.7479 -12.6950 -12.1208  -8.7945  -8.3573  -3.7978  -2.8823  -2.4848
    -0.7745  -0.2763  -0.1064   0.4374   0.7005   1.4904   4.6901   5.5112
     7.5706   9.8152   9.8783  11.3616

          k =-0.5373-0.8715 0.7901 (  2303 PWs)   bands (ev):

   -12.6427 -11.7188 -10.9554  -8.3307  -7.2003  -4.0697  -3.7333  -2.9350
    -2.5205  -1.6932  -1.2484  -0.5397   0.3253   1.2236   4.2153   4.9519
     6.0431   6.5476   9.3502  10.7005

          k =-0.3943-0.9556-1.5884 (  2308 PWs)   bands (ev):

    -9.7569  -9.4914  -9.3489  -8.4720  -7.7339  -6.8455  -5.4691  -4.8926
    -3.2582  -2.9433  -2.1928   1.5277   1.9504   2.5634   3.1005   3.5523
     4.9702   5.2585   7.4280   9.2973

     the Fermi energy is     5.0275 ev

!    total energy              =     -90.72831473 Ry
     Harris-Foulkes estimate   =     -90.72831484 Ry
     estimated scf accuracy    <       0.00000014 Ry

     The total energy is the sum of the following terms:

     one-electron contribution =     -39.43460786 Ry
     hartree contribution      =      33.58364920 Ry
     xc contribution           =     -27.63017228 Ry
     ewald contribution        =     -57.24806590 Ry
     smearing contrib. (-TS)   =       0.00088211 Ry

     convergence has been achieved in   9 iterations

     Forces acting on atoms (cartesian axes, Ry/au):

     atom    1 type  1   force =     0.01597466    0.00080653   -0.00885860
     atom    2 type  1   force =     0.01982102   -0.01941830    0.01552882
     atom    3 type  1   force =     0.00538506    0.00051186    0.03839010
     atom    4 type  1   force =    -0.00935551    0.01358960   -0.04208549
     atom    5 type  1   force =     0.02345418   -0.00824676    0.00575668
     atom    6 type  1   force =    -0.01223667    0.02533419    0.01186808
     atom    7 type  1   force =    -0.02494228   -0.01987851   -0.00762092
     atom    8 type  1   force =    -0.01810047    0.00730140   -0.01297868

     Total force =     0.090001     Total SCF correction =     0.000833


     Computing stress (Cartesian axis) and pressure

          total   stress  (Ry/bohr**3)                   (kbar)     P=        1.02
   0.00004374  -0.00005360  -0.00020749            6.43       -7.88      -30.52
  -0.00005360  -0.00007488   0.00003145           -7.88      -11.02        4.63
  -0.00020749   0.00003145   0.00005194          -30.52        4.63        7.64


     number of scf cycles    =   3
     number of bfgs steps    =   2

     enthalpy old            =     -90.7078798741 Ry
     enthalpy new            =     -90.7282770433 Ry

     CASE: enthalpy_new < enthalpy_old

     new trust radius        =       0.0415461035 bohr
     new conv_thr            =       0.0000004209 Ry

     new unit-cell volume =    553.71655 a.u.^3 (    82.05233 Ang^3 )
     density =      1.94281 g/cm^3

CELL_PARAMETERS (bohr)
  15.178549363  -0.163180446   0.884786386
   0.319421390   7.919050179  -0.268844362
   0.286085704  -0.179883778   4.627733729

ATOMIC_POSITIONS (crystal)
C             0.3200031755        0.3459975753       -0.0595614222
C             0.2474431137        0.4809312732        0.4895717195
C             0.6833907775        0.8812014932        0.2492674263
C             0.8551988473        0.7979440845        0.2092547301
C             0.5965593349        0.9482468777        0.7861800632
C             0.4437873357        0.1224935129       -0.1381592303
C             0.1189452013        0.7030651564        0.5863527226
C             0.9471582142        0.7683880268        0.6752289908



     Writing output data file ./pp.save/
     NEW-OLD atomic charge density approx. for the potential
     extrapolated charge   31.96188, renormalised to   32.00000

     total cpu time spent up to now is       26.2 secs

     Self-consistent Calculation

     iteration #  1     ecut=    40.00 Ry     beta= 0.50
     Davidson diagonalization with overlap
     ethr =  1.00E-06,  avg # of iterations =  7.6

     total cpu time spent up to now is       28.4 secs

     total energy              =     -90.73301004 Ry
     Harris-Foulkes estimate   =     -90.77148116 Ry
     estimated scf accuracy    <       0.00280770 Ry

     iteration #  2     ecut=    40.00 Ry     beta= 0.50
     Davidson diagonalization with overlap
     ethr =  8.77E-06,  avg # of iterations =  2.3

     total cpu time spent up to now is       29.3 secs

     total energy              =     -90.73246061 Ry
     Harris-Foulkes estimate   =     -90.73470966 Ry
     estimated scf accuracy    <       0.00814148 Ry

     iteration #  3     ecut=    40.00 Ry     beta= 0.50
     Davidson diagonalization with overlap
     ethr =  8.77E-06,  avg # of iterations =  3.2

     total cpu time spent up to now is       30.3 secs

     total energy              =     -90.73313407 Ry
     Harris-Foulkes estimate   =     -90.73461865 Ry
     estimated scf accuracy    <       0.00960748 Ry

     iteration #  4     ecut=    40.00 Ry     beta= 0.50
     Davidson diagonalization with overlap
     ethr =  8.77E-06,  avg # of iterations =  2.0

     total cpu time spent up to now is       31.1 secs

     total energy              =     -90.73385062 Ry
     Harris-Foulkes estimate   =     -90.73394054 Ry
     estimated scf accuracy    <       0.00030322 Ry

     iteration #  5     ecut=    40.00 Ry     beta= 0.50
     Davidson diagonalization with overlap
     ethr =  9.48E-07,  avg # of iterations =  3.0

     total cpu time spent up to now is       32.2 secs

     total energy              =     -90.73389742 Ry
     Harris-Foulkes estimate   =     -90.73392087 Ry
     estimated scf accuracy    <       0.00006521 Ry

     iteration #  6     ecut=    40.00 Ry     beta= 0.50
     Davidson diagonalization with overlap
     ethr =  2.04E-07,  avg # of iterations =  2.3

     total cpu time spent up to now is       33.1 secs

     total energy              =     -90.73390971 Ry
     Harris-Foulkes estimate   =     -90.73391255 Ry
     estimated scf accuracy    <       0.00000922 Ry

     iteration #  7     ecut=    40.00 Ry     beta= 0.50
     Davidson diagonalization with overlap
     ethr =  2.88E-08,  avg # of iterations =  2.0

     total cpu time spent up to now is       33.9 secs

     total energy              =     -90.73391128 Ry
     Harris-Foulkes estimate   =     -90.73391149 Ry
     estimated scf accuracy    <       0.00000085 Ry

     iteration #  8     ecut=    40.00 Ry     beta= 0.50
     Davidson diagonalization with overlap
     ethr =  2.66E-09,  avg # of iterations =  2.3

     total cpu time spent up to now is       35.0 secs

     End of self-consistent calculation

          k = 0.0000 0.0000 0.0000 (  2321 PWs)   bands (ev):

   -13.8801 -12.7908 -12.0844  -8.6019  -8.2554  -3.7938  -2.8982  -1.4479
    -0.3985  -0.3329   0.0847   0.4654   0.6384   1.4573   3.5919   4.7267
     7.6371   9.1478   9.8789  10.0480

          k =-0.0459 0.0288 0.7926 (  2281 PWs)   bands (ev):

   -12.7641 -11.7956 -10.9332  -8.1784  -7.1079  -4.0799  -3.7417  -2.9006
    -2.6236  -1.6628  -0.6317  -0.1456   0.6190   1.3672   3.7684   4.7918
     5.5400   6.3817   9.3918  10.6044

          k = 0.0918-0.0575-1.5853 (  2286 PWs)   bands (ev):

    -9.8453  -9.5377  -9.3834  -8.5692  -7.6743  -6.8406  -5.4098  -4.7480
    -3.2150  -2.9685  -2.1832   2.1599   2.4454   2.8581   3.1960   3.5655
     4.7346   5.2988   7.7558   8.6722

          k =-0.0079-0.9227-0.0354 (  2306 PWs)   bands (ev):

   -13.6878 -13.0588 -11.4560 -10.0118  -6.6015  -5.5109  -2.0682  -1.9304
    -1.3882  -0.3642  -0.1141   0.8579   1.2430   1.2510   3.1569   6.7938
     7.9947   9.2993   9.3831  11.9832

          k =-0.0538-0.8939 0.7573 (  2301 PWs)   bands (ev):

   -12.6100 -11.9420 -10.5190  -8.9927  -6.2846  -4.8464  -3.8259  -2.6334
    -2.1873  -1.7229  -0.9973  -0.7684  -0.4499   2.2727   3.7007   4.6721
     5.9599   7.3383   8.7185  11.3628

          k = 0.0839-0.9802-1.6207 (  2292 PWs)   bands (ev):

    -9.7092  -9.5713  -9.3101  -8.4259  -7.8195  -6.8215  -5.5485  -4.5761
    -3.3371  -3.2398  -1.9825   1.6124   1.9142   2.5173   3.0942   3.5350
     4.8774   5.3894   7.5127   9.2346

          k =-0.4825 0.0205 0.0306 (  2304 PWs)   bands (ev):

   -13.7355 -13.2589 -11.3901  -9.8816  -6.5585  -5.4543  -1.5227  -1.4583
    -0.6360  -0.3719  -0.0852   0.8173   0.8487   1.2461   2.2246   6.2874
     8.0346   8.9231   9.3017   9.6297

          k =-0.5284 0.0493 0.8233 (  2290 PWs)   bands (ev):

   -12.6630 -12.1167 -10.4556  -8.8877  -6.2497  -4.7989  -3.8514  -2.6596
    -2.1995  -1.7311  -0.8328  -0.2297   0.6053   1.7918   3.0815   4.7758
     5.9087   7.0231   8.3482  10.9080

          k =-0.3907-0.0370-1.5547 (  2300 PWs)   bands (ev):

    -9.7516  -9.6595  -9.4064  -8.4464  -7.7686  -6.8303  -5.4840  -4.5006
    -3.3133  -3.2214  -1.9846   2.1382   2.4607   2.9154   3.1119   3.5936
     4.8479   5.1615   7.7649   8.6847

          k =-0.4903-0.9022-0.0048 (  2314 PWs)   bands (ev):

   -13.7626 -12.7179 -12.0681  -8.7755  -8.3448  -3.7481  -2.8666  -2.4878
    -0.8024  -0.3294  -0.0664   0.4660   0.6603   1.4520   4.7006   5.5381
     7.6004   9.8141   9.8889  11.4703

          k =-0.5362-0.8734 0.7879 (  2303 PWs)   bands (ev):

   -12.6581 -11.7269 -10.9185  -8.2967  -7.2030  -4.0673  -3.7172  -2.8596
    -2.6304  -1.6538  -1.2491  -0.5673   0.3169   1.2316   4.2336   4.9861
     6.0349   6.5462   9.3554  10.7742

          k =-0.3986-0.9597-1.5901 (  2308 PWs)   bands (ev):

    -9.7282  -9.5159  -9.3214  -8.5556  -7.6733  -6.8248  -5.5046  -4.8254
    -3.2403  -2.9881  -2.1757   1.5274   2.0300   2.5029   3.0704   3.5794
     4.9051   5.3247   7.4960   9.2854

     the Fermi energy is     5.0310 ev

!    total energy              =     -90.73391140 Ry
     Harris-Foulkes estimate   =     -90.73391151 Ry
     estimated scf accuracy    <       0.00000025 Ry

     The total energy is the sum of the following terms:

     one-electron contribution =     -39.17212249 Ry
     hartree contribution      =      33.45841869 Ry
     xc contribution           =     -27.63145002 Ry
     ewald contribution        =     -57.38975171 Ry
     smearing contrib. (-TS)   =       0.00099412 Ry

     convergence has been achieved in   8 iterations

     Forces acting on atoms (cartesian axes, Ry/au):

     atom    1 type  1   force =     0.00234862    0.01448387    0.00515462
     atom    2 type  1   force =    -0.01345391    0.00955787    0.00565461
     atom    3 type  1   force =    -0.01141025    0.00663787    0.01961983
     atom    4 type  1   force =     0.00941677    0.00692802   -0.02186991
     atom    5 type  1   force =    -0.00479720    0.00885692    0.01279914
     atom    6 type  1   force =     0.03214818   -0.01120368    0.00534753
     atom    7 type  1   force =     0.00282922   -0.03956642   -0.00697585
     atom    8 type  1   force =    -0.01708143    0.00430556   -0.01972996

     Total force =     0.074128     Total SCF correction =     0.000673


     Computing stress (Cartesian axis) and pressure

          total   stress  (Ry/bohr**3)                   (kbar)     P=        0.02
   0.00002796  -0.00001636  -0.00013816            4.11       -2.41      -20.32
  -0.00001636  -0.00010403  -0.00000212           -2.41      -15.30       -0.31
  -0.00013816  -0.00000212   0.00007641          -20.32       -0.31       11.24


     number of scf cycles    =   4
     number of bfgs steps    =   3

     enthalpy old            =     -90.7282770433 Ry
     enthalpy new            =     -90.7338737636 Ry

     CASE: enthalpy_new < enthalpy_old

     new trust radius        =       0.0963368419 bohr
     new conv_thr            =       0.0000003957 Ry

     new unit-cell volume =    553.76572 a.u.^3 (    82.05961 Ang^3 )
     density =      1.94263 g/cm^3

CELL_PARAMETERS (bohr)
  15.225924110  -0.206564219   0.787564425
   0.295609518   7.865558737  -0.289616950
   0.253139322  -0.190645693   4.641937632

ATOMIC_POSITIONS (crystal)
C             0.3216791480        0.3487972446       -0.0625452006
C             0.2479795667        0.4796321138        0.4984758443
C             0.6830864370        0.8823776723        0.2627857149
C             0.8546123168        0.8020224510        0.1930573935
C             0.5978935900        0.9486120152        0.7952544042
C             0.4468189113        0.1237995410       -0.1328657096
C             0.1167948615        0.6919622397        0.5820985875
C             0.9436211687        0.7710647225        0.6618739658



     Writing output data file ./pp.save/
     NEW-OLD atomic charge density approx. for the potential
     extrapolated charge   32.00284, renormalised to   32.00000

     total cpu time spent up to now is       35.0 secs

     Self-consistent Calculation

     iteration #  1     ecut=    40.00 Ry     beta= 0.50
     Davidson diagonalization with overlap
     ethr =  1.00E-06,  avg # of iterations =  9.0

     total cpu time spent up to now is       38.4 secs

     total energy              =     -90.73878889 Ry
     Harris-Foulkes estimate   =     -90.73884576 Ry
     estimated scf accuracy    <       0.00578096 Ry

     iteration #  2     ecut=    40.00 Ry     beta= 0.50
     Davidson diagonalization with overlap
     ethr =  1.81E-05,  avg # of iterations =  2.0

     total cpu time spent up to now is       39.5 secs

     total energy              =     -90.73887918 Ry
     Harris-Foulkes estimate   =     -90.74099178 Ry
     estimated scf accuracy    <       0.00587347 Ry

     iteration #  3     ecut=    40.00 Ry     beta= 0.50
     Davidson diagonalization with overlap
     ethr =  1.81E-05,  avg # of iterations =  2.0

     total cpu time spent up to now is       40.4 secs

     total energy              =     -90.73898044 Ry
     Harris-Foulkes estimate   =     -90.74098873 Ry
     estimated scf accuracy    <       0.01156631 Ry

     iteration #  4     ecut=    40.00 Ry     beta= 0.50
     Davidson diagonalization with overlap
     ethr =  1.81E-05,  avg # of iterations =  1.1

     total cpu time spent up to now is       41.2 secs

     total energy              =     -90.73999357 Ry
     Harris-Foulkes estimate   =     -90.74031036 Ry
     estimated scf accuracy    <       0.00171505 Ry

     iteration #  5     ecut=    40.00 Ry     beta= 0.50
     Davidson diagonalization with overlap
     ethr =  5.36E-06,  avg # of iterations =  1.1

     total cpu time spent up to now is       41.9 secs

     total energy              =     -90.74015394 Ry
     Harris-Foulkes estimate   =     -90.74019774 Ry
     estimated scf accuracy    <       0.00013386 Ry

     iteration #  6     ecut=    40.00 Ry     beta= 0.50
     Davidson diagonalization with overlap
     ethr =  4.18E-07,  avg # of iterations =  2.1

     total cpu time spent up to now is       43.0 secs

     total energy              =     -90.74017857 Ry
     Harris-Foulkes estimate   =     -90.74018206 Ry
     estimated scf accuracy    <       0.00001202 Ry

     iteration #  7     ecut=    40.00 Ry     beta= 0.50
     Davidson diagonalization with overlap
     ethr =  3.76E-08,  avg # of iterations =  2.2

     total cpu time spent up to now is       44.1 secs

     total energy              =     -90.74018102 Ry
     Harris-Foulkes estimate   =     -90.74018158 Ry
     estimated scf accuracy    <       0.00000250 Ry

     iteration #  8     ecut=    40.00 Ry     beta= 0.50
     Davidson diagonalization with overlap
     ethr =  7.82E-09,  avg # of iterations =  2.0

     total cpu time spent up to now is       45.2 secs

     total energy              =     -90.74018147 Ry
     Harris-Foulkes estimate   =     -90.74018157 Ry
     estimated scf accuracy    <       0.00000055 Ry

     iteration #  9     ecut=    40.00 Ry     beta= 0.50
     Davidson diagonalization with overlap
     ethr =  1.72E-09,  avg # of iterations =  1.8

     total cpu time spent up to now is       46.2 secs

     End of self-consistent calculation

          k = 0.0000 0.0000 0.0000 (  2321 PWs)   bands (ev):

   -13.8846 -12.7623 -12.0432  -8.5672  -8.2057  -3.7120  -2.8870  -1.4403
    -0.5302  -0.3655   0.1493   0.4830   0.6476   1.3548   3.6157   4.7951
     7.6103   9.1801   9.8543  10.0607

          k =-0.0404 0.0306 0.7897 (  2281 PWs)   bands (ev):

   -12.7792 -11.7567 -10.9219  -8.0983  -7.1278  -4.1296  -3.7377  -2.8292
    -2.6807  -1.7594  -0.5632  -0.1535   0.6645   1.3908   3.8338   4.7937
     5.5099   6.3689   9.4493  10.6246

          k = 0.0809-0.0612-1.5795 (  2286 PWs)   bands (ev):

    -9.8626  -9.5923  -9.2820  -8.6802  -7.6228  -6.8892  -5.4313  -4.6079
    -3.2003  -3.0480  -2.1193   2.2802   2.4514   2.8039   3.1596   3.6388
     4.5865   5.3620   7.7380   8.7833

          k =-0.0107-0.9290-0.0376 (  2306 PWs)   bands (ev):

   -13.7099 -12.9907 -11.4463  -9.9328  -6.5856  -5.4551  -2.0966  -1.8761
    -1.3660  -0.5504  -0.0741   0.8758   1.1041   1.2153   3.1781   6.9566
     7.9584   9.2934   9.4233  12.0069

          k =-0.0511-0.8984 0.7522 (  2301 PWs)   bands (ev):

   -12.6339 -11.8935 -10.4936  -8.9540  -6.2259  -4.8555  -3.9367  -2.6874
    -2.2038  -1.6031  -1.0076  -0.7580  -0.5025   2.2792   3.6728   4.6554
     6.0048   7.4289   8.7158  11.3845

          k = 0.0702-0.9902-1.6171 (  2292 PWs)   bands (ev):

    -9.6844  -9.5753  -9.3802  -8.3517  -7.9029  -6.8490  -5.4367  -4.6630
    -3.2915  -3.0736  -2.0891   1.5761   1.9993   2.4498   3.1854   3.4769
     4.9333   5.2633   7.5005   9.3525

          k =-0.4806 0.0191 0.0270 (  2304 PWs)   bands (ev):

   -13.7651 -13.1903 -11.3829  -9.8141  -6.5366  -5.3869  -1.5021  -1.4293
    -0.5841  -0.5586  -0.0201   0.7942   0.8639   1.1049   2.3101   6.3700
     7.9857   8.9244   9.2946   9.6223

          k =-0.5210 0.0497 0.8167 (  2290 PWs)   bands (ev):

   -12.6892 -12.0726 -10.4317  -8.8590  -6.1882  -4.7979  -3.9600  -2.7315
    -2.1910  -1.6191  -0.8653  -0.2359   0.6379   1.8310   3.1031   4.7453
     5.9536   7.0644   8.3153  10.9340

          k =-0.3997-0.0421-1.5525 (  2300 PWs)   bands (ev):

    -9.7329  -9.6410  -9.5031  -8.3726  -7.8445  -6.8585  -5.3835  -4.5940
    -3.2670  -3.0630  -2.0833   2.2426   2.4876   2.8522   3.2063   3.5452
     4.7826   5.1240   7.7478   8.8534

          k =-0.4912-0.9100-0.0106 (  2314 PWs)   bands (ev):

   -13.7700 -12.6808 -12.0188  -8.7401  -8.2919  -3.6769  -2.8609  -2.4923
    -0.7959  -0.5256  -0.0883   0.4951   0.6724   1.3501   4.7098   5.6284
     7.5866   9.8539   9.9261  11.5759

          k =-0.5317-0.8794 0.7792 (  2303 PWs)   bands (ev):

   -12.6755 -11.6826 -10.8977  -8.2171  -7.2202  -4.1199  -3.7137  -2.8244
    -2.6558  -1.7469  -1.2469  -0.5044   0.3249   1.1789   4.2650   5.0365
     6.0186   6.5210   9.4576  10.8052

          k =-0.4104-0.9712-1.5901 (  2308 PWs)   bands (ev):

    -9.7370  -9.5528  -9.2438  -8.6669  -7.6186  -6.8695  -5.5245  -4.6799
    -3.2210  -3.0658  -2.1133   1.4898   2.1230   2.4388   3.0440   3.6431
     4.7630   5.4032   7.4456   9.3827

     the Fermi energy is     5.0277 ev

!    total energy              =     -90.74018152 Ry
     Harris-Foulkes estimate   =     -90.74018156 Ry
     estimated scf accuracy    <       0.00000006 Ry

     The total energy is the sum of the following terms:

     one-electron contribution =     -38.32420559 Ry
     hartree contribution      =      33.02434803 Ry
     xc contribution           =     -27.61053342 Ry
     ewald contribution        =     -57.83119966 Ry
     smearing contrib. (-TS)   =       0.00140912 Ry

     convergence has been achieved in   9 iterations

     Forces acting on atoms (cartesian axes, Ry/au):

     atom    1 type  1   force =     0.02492434   -0.01197564    0.02977266
     atom    2 type  1   force =    -0.01542944    0.00790694   -0.02351842
     atom    3 type  1   force =    -0.00520668    0.00794964   -0.01970332
     atom    4 type  1   force =     0.00177700    0.00371792    0.00964609
     atom    5 type  1   force =    -0.00819243    0.01087062    0.02053092
     atom    6 type  1   force =     0.00211051    0.01176291    0.00154616
     atom    7 type  1   force =    -0.03489225   -0.01713710    0.00129642
     atom    8 type  1   force =     0.03490895   -0.01309528   -0.01957051

     Total force =     0.084447     Total SCF correction =     0.000454


     Computing stress (Cartesian axis) and pressure

          total   stress  (Ry/bohr**3)                   (kbar)     P=      -10.04
  -0.00009203   0.00002256   0.00008805          -13.54        3.32       12.95
   0.00002256  -0.00012429  -0.00008798            3.32      -18.28      -12.94
   0.00008805  -0.00008798   0.00001160           12.95      -12.94        1.71


     number of scf cycles    =   5
     number of bfgs steps    =   4

     enthalpy old            =     -90.7338737636 Ry
     enthalpy new            =     -90.7401438800 Ry

     CASE: enthalpy_new < enthalpy_old

     new trust radius        =       0.0867471150 bohr
     new conv_thr            =       0.0000003491 Ry

     new unit-cell volume =    551.72285 a.u.^3 (    81.75689 Ang^3 )
     density =      1.94983 g/cm^3

CELL_PARAMETERS (bohr)
  15.246394940  -0.236976363   0.782644281
   0.279057309   7.812968678  -0.323514955
   0.251963740  -0.211728592   4.651016404

ATOMIC_POSITIONS (crystal)
C             0.3247142435        0.3484099537       -0.0584539937
C             0.2473338663        0.4797290965        0.4992817812
C             0.6825656424        0.8840335350        0.2668488650
C             0.8542320926        0.8049021758        0.1852886621
C             0.5983994375        0.9496701474        0.8043683689
C             0.4481891389        0.1266283866       -0.1294225979
C             0.1131638209        0.6838039138        0.5794796445
C             0.9438877577        0.7710907913        0.6507442698



     Writing output data file ./pp.save/
     NEW-OLD atomic charge density approx. for the potential
     extrapolated charge   31.88151, renormalised to   32.00000

     total cpu time spent up to now is       46.3 secs

     Self-consistent Calculation

     iteration #  1     ecut=    40.00 Ry     beta= 0.50
     Davidson diagonalization with overlap
     ethr =  1.00E-06,  avg # of iterations =  8.8

     total cpu time spent up to now is       50.2 secs

     total energy              =     -90.74308990 Ry
     Harris-Foulkes estimate   =     -90.85400198 Ry
     estimated scf accuracy    <       0.00396604 Ry

     iteration #  2     ecut=    40.00 Ry     beta= 0.50
     Davidson diagonalization with overlap
     ethr =  1.24E-05,  avg # of iterations =  4.3

     total cpu time spent up to now is       52.2 secs

     total energy              =     -90.74102947 Ry
     Harris-Foulkes estimate   =     -90.74747101 Ry
     estimated scf accuracy    <       0.03883901 Ry

     iteration #  3     ecut=    40.00 Ry     beta= 0.50
     Davidson diagonalization with overlap
     ethr =  1.24E-05,  avg # of iterations =  3.7

     total cpu time spent up to now is       53.9 secs

     total energy              =     -90.74438721 Ry
     Harris-Foulkes estimate   =     -90.74493650 Ry
     estimated scf accuracy    <       0.00303732 Ry

     iteration #  4     ecut=    40.00 Ry     beta= 0.50
     Davidson diagonalization with overlap
     ethr =  9.49E-06,  avg # of iterations =  1.1

     total cpu time spent up to now is       54.9 secs

     total energy              =     -90.74463622 Ry
     Harris-Foulkes estimate   =     -90.74469426 Ry
     estimated scf accuracy    <       0.00016539 Ry

     iteration #  5     ecut=    40.00 Ry     beta= 0.50
     Davidson diagonalization with overlap
     ethr =  5.17E-07,  avg # of iterations =  2.7

     total cpu time spent up to now is       56.3 secs

     total energy              =     -90.74466287 Ry
     Harris-Foulkes estimate   =     -90.74468185 Ry
     estimated scf accuracy    <       0.00005317 Ry

     iteration #  6     ecut=    40.00 Ry     beta= 0.50
     Davidson diagonalization with overlap
     ethr =  1.66E-07,  avg # of iterations =  2.5

     total cpu time spent up to now is       57.8 secs

     total energy              =     -90.74467362 Ry
     Harris-Foulkes estimate   =     -90.74467938 Ry
     estimated scf accuracy    <       0.00001929 Ry

     iteration #  7     ecut=    40.00 Ry     beta= 0.50
     Davidson diagonalization with overlap
     ethr =  6.03E-08,  avg # of iterations =  2.2

     total cpu time spent up to now is       59.1 secs

     total energy              =     -90.74467663 Ry
     Harris-Foulkes estimate   =     -90.74467660 Ry
     estimated scf accuracy    <       0.00000050 Ry

     iteration #  8     ecut=    40.00 Ry     beta= 0.50
     Davidson diagonalization with overlap
     ethr =  1.58E-09,  avg # of iterations =  2.8

     total cpu time spent up to now is       60.8 secs

     End of self-consistent calculation

          k = 0.0000 0.0000 0.0000 (  2321 PWs)   bands (ev):

   -13.8415 -12.6473 -12.0489  -8.5648  -8.1976  -3.7257  -2.8703  -1.3858
    -0.5250  -0.2556   0.1623   0.5131   0.7366   1.4352   3.6781   4.8700
     7.5516   9.2342   9.9179  10.2014

          k =-0.0399 0.0341 0.7885 (  2281 PWs)   bands (ev):

   -12.7408 -11.6600 -10.9170  -8.1136  -7.1283  -4.0709  -3.8014  -2.7029
    -2.6446  -1.7005  -0.5684  -0.1234   0.7112   1.4458   3.9025   4.7651
     5.5734   6.4302   9.5603  10.6834

          k = 0.0799-0.0681-1.5769 (  2286 PWs)   bands (ev):

    -9.8310  -9.5639  -9.3169  -8.5533  -7.6370  -6.8559  -5.3839  -4.5190
    -3.2291  -3.0417  -2.1185   2.2532   2.4690   2.8346   3.2077   3.7041
     4.6749   5.3199   7.7562   9.0662

          k =-0.0124-0.9356-0.0419 (  2306 PWs)   bands (ev):

   -13.6670 -12.8988 -11.4062  -9.9259  -6.6141  -5.4245  -2.0799  -1.8240
    -1.4198  -0.5425  -0.0564   1.0804   1.0927   1.2793   3.1445   7.2234
     7.9128   9.3227   9.4010  12.1913

          k =-0.0523-0.9015 0.7465 (  2301 PWs)   bands (ev):

   -12.5965 -11.8045 -10.4656  -8.9527  -6.2585  -4.8541  -3.9012  -2.5282
    -2.1759  -1.6211  -0.9973  -0.7373  -0.4898   2.3160   3.6528   4.6576
     6.1049   7.5154   8.7965  11.5000

          k = 0.0675-1.0038-1.6188 (  2292 PWs)   bands (ev):

    -9.6970  -9.5255  -9.3310  -8.3480  -7.8236  -6.8346  -5.3540  -4.6369
    -3.3111  -3.0099  -2.1222   1.5898   1.9361   2.4660   3.2420   3.5431
     4.9265   5.3268   7.4930   9.6028

          k =-0.4799 0.0183 0.0268 (  2304 PWs)   bands (ev):

   -13.7286 -13.1040 -11.3416  -9.8189  -6.5614  -5.3438  -1.4895  -1.4349
    -0.5506  -0.5039   0.0164   0.8439   1.0689   1.0905   2.3617   6.5389
     7.9386   8.8647   9.3324   9.6571

          k =-0.5198 0.0523 0.8153 (  2290 PWs)   bands (ev):

   -12.6566 -11.9898 -10.4011  -8.8692  -6.2186  -4.7889  -3.9235  -2.5750
    -2.1617  -1.6335  -0.8605  -0.2010   0.6998   1.8589   3.1647   4.7392
     6.0503   7.1422   8.3214  10.9901

          k =-0.4000-0.0499-1.5501 (  2300 PWs)   bands (ev):

    -9.7508  -9.5765  -9.4702  -8.3624  -7.7701  -6.8484  -5.3086  -4.5703
    -3.2858  -2.9971  -2.1182   2.2074   2.5220   2.8668   3.2666   3.6202
     4.8332   5.1117   7.7681   9.1502

          k =-0.4923-0.9174-0.0151 (  2314 PWs)   bands (ev):

   -13.7236 -12.5602 -12.0182  -8.7291  -8.2877  -3.7013  -2.8538  -2.4717
    -0.7029  -0.5202  -0.1344   0.5376   0.7589   1.4302   4.7250   5.7599
     7.5293   9.9148  10.1337  11.6612

          k =-0.5322-0.8833 0.7734 (  2303 PWs)   bands (ev):

   -12.6343 -11.5838 -10.8840  -8.2283  -7.2207  -4.0633  -3.7819  -2.7078
    -2.6166  -1.6898  -1.2281  -0.5162   0.3747   1.1624   4.2955   5.0334
     6.1168   6.5517   9.6089  10.9119

          k =-0.4124-0.9855-1.5920 (  2308 PWs)   bands (ev):

    -9.7077  -9.5158  -9.2848  -8.5335  -7.6306  -6.8334  -5.4817  -4.5802
    -3.2462  -3.0592  -2.1158   1.5006   2.0455   2.4650   3.1136   3.6985
     4.8336   5.3771   7.4488   9.6656

     the Fermi energy is     5.0381 ev

!    total energy              =     -90.74467674 Ry
     Harris-Foulkes estimate   =     -90.74467676 Ry
     estimated scf accuracy    <       0.00000009 Ry

     The total energy is the sum of the following terms:

     one-electron contribution =     -37.48715602 Ry
     hartree contribution      =      32.64702287 Ry
     xc contribution           =     -27.61916414 Ry
     ewald contribution        =     -58.28659158 Ry
     smearing contrib. (-TS)   =       0.00121213 Ry

     convergence has been achieved in   8 iterations

     Forces acting on atoms (cartesian axes, Ry/au):

     atom    1 type  1   force =    -0.01361919    0.01948667    0.01771586
     atom    2 type  1   force =    -0.00436159   -0.00152377   -0.01219332
     atom    3 type  1   force =     0.00697222    0.00586701   -0.01257422
     atom    4 type  1   force =     0.00606274   -0.00092707    0.01104872
     atom    5 type  1   force =    -0.01023805    0.01176934   -0.00078599
     atom    6 type  1   force =     0.01492652   -0.00347650    0.00277881
     atom    7 type  1   force =    -0.00148856   -0.02462883   -0.00202857
     atom    8 type  1   force =     0.00174591   -0.00656685   -0.00396129

     Total force =     0.051100     Total SCF correction =     0.000431


     Computing stress (Cartesian axis) and pressure

          total   stress  (Ry/bohr**3)                   (kbar)     P=       -6.77
   0.00003707  -0.00003847   0.00009268            5.45       -5.66       13.63
  -0.00003847  -0.00006730  -0.00004664           -5.66       -9.90       -6.86
   0.00009268  -0.00004664  -0.00010787           13.63       -6.86      -15.87


     number of scf cycles    =   6
     number of bfgs steps    =   5

     enthalpy old            =     -90.7401438800 Ry
     enthalpy new            =     -90.7446392375 Ry

     CASE: enthalpy_new < enthalpy_old

     new trust radius        =       0.0766941327 bohr
     new conv_thr            =       0.0000002463 Ry

     new unit-cell volume =    548.17316 a.u.^3 (    81.23088 Ang^3 )
     density =      1.96245 g/cm^3

CELL_PARAMETERS (bohr)
  15.291858999  -0.284557201   0.827664546
   0.254839747   7.766103759  -0.357589332
   0.265744796  -0.232860610   4.638336630

ATOMIC_POSITIONS (crystal)
C             0.3253809222        0.3510310758       -0.0536846581
C             0.2473061192        0.4785657526        0.4985922453
C             0.6831605146        0.8856856278        0.2677959191
C             0.8541690700        0.8067644025        0.1818981236
C             0.5983282973        0.9514612543        0.8092446781
C             0.4496786130        0.1287814185       -0.1260005048
C             0.1106994495        0.6754235485        0.5772243784
C             0.9437630141        0.7705549199        0.6430648184



     Writing output data file ./pp.save/
     NEW-OLD atomic charge density approx. for the potential
     extrapolated charge   31.79279, renormalised to   32.00000

     total cpu time spent up to now is       60.9 secs

     Self-consistent Calculation

     iteration #  1     ecut=    40.00 Ry     beta= 0.50
     Davidson diagonalization with overlap
     ethr =  1.00E-06,  avg # of iterations =  8.8

     total cpu time spent up to now is       65.5 secs

     total energy              =     -90.74555348 Ry
     Harris-Foulkes estimate   =     -90.93259574 Ry
     estimated scf accuracy    <       0.00237707 Ry

     iteration #  2     ecut=    40.00 Ry     beta= 0.50
     Davidson diagonalization with overlap
     ethr =  7.43E-06,  avg # of iterations =  4.5

     total cpu time spent up to now is       68.1 secs

     total energy              =     -90.74538237 Ry
     Harris-Foulkes estimate   =     -90.74898475 Ry
     estimated scf accuracy    <       0.02157528 Ry

     iteration #  3     ecut=    40.00 Ry     beta= 0.50
     Davidson diagonalization with overlap
     ethr =  7.43E-06,  avg # of iterations =  4.0

     total cpu time spent up to now is       70.2 secs

     total energy              =     -90.74710137 Ry
     Harris-Foulkes estimate   =     -90.74760461 Ry
     estimated scf accuracy    <       0.00245481 Ry

     iteration #  4     ecut=    40.00 Ry     beta= 0.50
     Davidson diagonalization with overlap
     ethr =  7.43E-06,  avg # of iterations =  1.0

     total cpu time spent up to now is       71.3 secs

     total energy              =     -90.74728468 Ry
     Harris-Foulkes estimate   =     -90.74734228 Ry
     estimated scf accuracy    <       0.00022294 Ry

     iteration #  5     ecut=    40.00 Ry     beta= 0.50
     Davidson diagonalization with overlap
     ethr =  6.97E-07,  avg # of iterations =  1.8

     total cpu time spent up to now is       72.6 secs

     total energy              =     -90.74729217 Ry
     Harris-Foulkes estimate   =     -90.74730991 Ry
     estimated scf accuracy    <       0.00005263 Ry

     iteration #  6     ecut=    40.00 Ry     beta= 0.50
     Davidson diagonalization with overlap
     ethr =  1.64E-07,  avg # of iterations =  2.1

     total cpu time spent up to now is       74.3 secs

     total energy              =     -90.74730159 Ry
     Harris-Foulkes estimate   =     -90.74730445 Ry
     estimated scf accuracy    <       0.00000890 Ry

     iteration #  7     ecut=    40.00 Ry     beta= 0.50
     Davidson diagonalization with overlap
     ethr =  2.78E-08,  avg # of iterations =  2.2

     total cpu time spent up to now is       75.9 secs

     total energy              =     -90.74730298 Ry
     Harris-Foulkes estimate   =     -90.74730335 Ry
     estimated scf accuracy    <       0.00000123 Ry

     iteration #  8     ecut=    40.00 Ry     beta= 0.50
     Davidson diagonalization with overlap
     ethr =  3.83E-09,  avg # of iterations =  2.3

     total cpu time spent up to now is       77.6 secs

     total energy              =     -90.74730310 Ry
     Harris-Foulkes estimate   =     -90.74730323 Ry
     estimated scf accuracy    <       0.00000047 Ry

     iteration #  9     ecut=    40.00 Ry     beta= 0.50
     Davidson diagonalization with overlap
     ethr =  1.47E-09,  avg # of iterations =  2.0

     total cpu time spent up to now is       79.2 secs

     End of self-consistent calculation

          k = 0.0000 0.0000 0.0000 (  2321 PWs)   bands (ev):

   -13.7930 -12.6104 -12.0204  -8.4978  -8.1887  -3.7168  -2.8007  -1.3103
    -0.3898  -0.2128   0.2072   0.5546   0.8019   1.5091   3.7740   4.9104
     7.6671   9.3195   9.9888  10.3222

          k =-0.0421 0.0378 0.7912 (  2281 PWs)   bands (ev):

   -12.6840 -11.6275 -10.8654  -8.0880  -7.0539  -3.9739  -3.7889  -2.6650
    -2.5713  -1.6205  -0.5431  -0.0614   0.7428   1.5452   3.9947   4.7813
     5.6699   6.4802   9.6714  10.7811

          k = 0.0842-0.0756-1.5824 (  2286 PWs)   bands (ev):

    -9.7320  -9.4812  -9.3092  -8.4111  -7.6638  -6.7861  -5.3631  -4.4487
    -3.2042  -2.9927  -2.1048   2.2906   2.5816   2.9043   3.2723   3.7397
     4.8078   5.2875   7.8378   9.2725

          k =-0.0150-0.9416-0.0464 (  2306 PWs)   bands (ev):

   -13.6113 -12.8606 -11.3855  -9.8635  -6.5880  -5.4044  -2.0441  -1.7892
    -1.3545  -0.4092  -0.0621   1.1059   1.2122   1.3157   3.1809   7.3669
     8.0406   9.3721   9.4723  12.3805

          k =-0.0571-0.9038 0.7448 (  2301 PWs)   bands (ev):

   -12.5377 -11.7521 -10.4517  -8.8612  -6.2509  -4.7994  -3.7970  -2.4375
    -2.1606  -1.5837  -0.9518  -0.7078  -0.4412   2.3324   3.7293   4.7351
     6.1634   7.5696   8.9325  11.6195

          k = 0.0692-1.0172-1.6288 (  2292 PWs)   bands (ev):

    -9.6483  -9.4447  -9.1934  -8.3674  -7.7324  -6.7863  -5.3082  -4.5973
    -3.2685  -2.9942  -2.0861   1.6991   1.9484   2.5269   3.2839   3.5989
     4.9338   5.4338   7.5630   9.7815

          k =-0.4786 0.0170 0.0283 (  2304 PWs)   bands (ev):

   -13.6784 -13.0686 -11.3214  -9.7670  -6.5278  -5.3159  -1.4343  -1.3534
    -0.4585  -0.4171   0.0221   0.8854   1.0950   1.2100   2.4625   6.6409
     8.0682   8.8678   9.3907   9.7263

          k =-0.5207 0.0548 0.8195 (  2290 PWs)   bands (ev):

   -12.6030 -11.9390 -10.3875  -8.7871  -6.2047  -4.7301  -3.8193  -2.4826
    -2.1475  -1.5940  -0.8232  -0.1366   0.7671   1.8805   3.2960   4.8101
     6.1075   7.1740   8.4077  11.0916

          k =-0.3943-0.0586-1.5541 (  2300 PWs)   bands (ev):

    -9.7064  -9.4943  -9.3384  -8.3815  -7.6799  -6.8031  -5.2644  -4.5315
    -3.2385  -2.9799  -2.0850   2.2496   2.6326   2.9455   3.3052   3.6815
     4.8918   5.1505   7.8544   9.3723

          k =-0.4936-0.9246-0.0181 (  2314 PWs)   bands (ev):

   -13.6690 -12.5245 -11.9824  -8.6592  -8.2787  -3.7014  -2.7926  -2.4366
    -0.6542  -0.3850  -0.1307   0.5752   0.8238   1.5025   4.8077   5.8018
     7.6430   9.9842  10.3068  11.8047

          k =-0.5357-0.8868 0.7731 (  2303 PWs)   bands (ev):

   -12.5726 -11.5526 -10.8259  -8.1990  -7.1473  -3.9691  -3.7723  -2.6356
    -2.5831  -1.6124  -1.1794  -0.4981   0.4058   1.2101   4.3777   5.0711
     6.2052   6.5992   9.7438  11.0509

          k =-0.4093-1.0002-1.6005 (  2308 PWs)   bands (ev):

    -9.6118  -9.4306  -9.2712  -8.3833  -7.6603  -6.7617  -5.4623  -4.5090
    -3.2184  -3.0096  -2.1053   1.6089   2.0477   2.5253   3.1782   3.7304
     4.9465   5.3740   7.5330   9.8763

     the Fermi energy is     5.0860 ev

!    total energy              =     -90.74730315 Ry
     Harris-Foulkes estimate   =     -90.74730320 Ry
     estimated scf accuracy    <       0.00000007 Ry

     The total energy is the sum of the following terms:

     one-electron contribution =     -36.63079076 Ry
     hartree contribution      =      32.28935138 Ry
     xc contribution           =     -27.63162158 Ry
     ewald contribution        =     -58.77507778 Ry
     smearing contrib. (-TS)   =       0.00083559 Ry

     convergence has been achieved in   9 iterations

     Forces acting on atoms (cartesian axes, Ry/au):

     atom    1 type  1   force =    -0.00526883    0.00752873    0.00640022
     atom    2 type  1   force =    -0.00669709   -0.00034220   -0.00335075
     atom    3 type  1   force =     0.00350547    0.00732912   -0.00871613
     atom    4 type  1   force =     0.00443588   -0.00209628    0.00532568
     atom    5 type  1   force =     0.00227241    0.00832060   -0.00813989
     atom    6 type  1   force =    -0.00089735    0.00813404    0.00520273
     atom    7 type  1   force =     0.00672494   -0.02044280   -0.00460627
     atom    8 type  1   force =    -0.00407543   -0.00843121    0.00788440

     Total force =     0.035283     Total SCF correction =     0.000482


     Computing stress (Cartesian axis) and pressure

          total   stress  (Ry/bohr**3)                   (kbar)     P=       -3.15
   0.00000273  -0.00001542  -0.00000518            0.40       -2.27       -0.76
  -0.00001542  -0.00007754   0.00002162           -2.27      -11.41        3.18
  -0.00000518   0.00002162   0.00001047           -0.76        3.18        1.54


     number of scf cycles    =   7
     number of bfgs steps    =   6

     enthalpy old            =     -90.7446392375 Ry
     enthalpy new            =     -90.7472658861 Ry

     CASE: enthalpy_new < enthalpy_old

     new trust radius        =       0.0798624639 bohr
     new conv_thr            =       0.0000002044 Ry

     new unit-cell volume =    544.10544 a.u.^3 (    80.62811 Ang^3 )
     density =      1.97712 g/cm^3

CELL_PARAMETERS (bohr)
  15.313003673  -0.323947279   0.836495055
   0.235004880   7.704945533  -0.372766814
   0.267974143  -0.242858182   4.635143326

ATOMIC_POSITIONS (crystal)
C             0.3258424872        0.3536258742       -0.0479740122
C             0.2466093868        0.4776110731        0.4967125168
C             0.6837552696        0.8883068061        0.2664962592
C             0.8545018702        0.8079208961        0.1800192852
C             0.5986519488        0.9541890819        0.8107698207
C             0.4502974149        0.1324744500       -0.1219391861
C             0.1092426465        0.6656357651        0.5744809786
C             0.9435849760        0.7685040535        0.6395693377



     Writing output data file ./pp.save/
     NEW-OLD atomic charge density approx. for the potential
     extrapolated charge   31.76077, renormalised to   32.00000

     total cpu time spent up to now is       79.3 secs

     Self-consistent Calculation

     iteration #  1     ecut=    40.00 Ry     beta= 0.50
     Davidson diagonalization with overlap
     ethr =  1.00E-06,  avg # of iterations = 10.0

     total cpu time spent up to now is       85.1 secs

     total energy              =     -90.74675021 Ry
     Harris-Foulkes estimate   =     -90.95665298 Ry
     estimated scf accuracy    <       0.00317772 Ry

     iteration #  2     ecut=    40.00 Ry     beta= 0.50
     Davidson diagonalization with overlap
     ethr =  9.93E-06,  avg # of iterations =  4.3

     total cpu time spent up to now is       88.0 secs

     total energy              =     -90.74720631 Ry
     Harris-Foulkes estimate   =     -90.75052142 Ry
     estimated scf accuracy    <       0.01479714 Ry

     iteration #  3     ecut=    40.00 Ry     beta= 0.50
     Davidson diagonalization with overlap
     ethr =  9.93E-06,  avg # of iterations =  4.1

     total cpu time spent up to now is       90.5 secs

     total energy              =     -90.74838070 Ry
     Harris-Foulkes estimate   =     -90.74985965 Ry
     estimated scf accuracy    <       0.00861851 Ry

     iteration #  4     ecut=    40.00 Ry     beta= 0.50
     Davidson diagonalization with overlap
     ethr =  9.93E-06,  avg # of iterations =  3.3

     total cpu time spent up to now is       92.7 secs

     total energy              =     -90.74907169 Ry
     Harris-Foulkes estimate   =     -90.74921738 Ry
     estimated scf accuracy    <       0.00063295 Ry

     iteration #  5     ecut=    40.00 Ry     beta= 0.50
     Davidson diagonalization with overlap
     ethr =  1.98E-06,  avg # of iterations =  2.3

     total cpu time spent up to now is       94.5 secs

     total energy              =     -90.74910621 Ry
     Harris-Foulkes estimate   =     -90.74914473 Ry
     estimated scf accuracy    <       0.00011297 Ry

     iteration #  6     ecut=    40.00 Ry     beta= 0.50
     Davidson diagonalization with overlap
     ethr =  3.53E-07,  avg # of iterations =  2.0

     total cpu time spent up to now is       96.3 secs

     total energy              =     -90.74911911 Ry
     Harris-Foulkes estimate   =     -90.74912627 Ry
     estimated scf accuracy    <       0.00002156 Ry

     iteration #  7     ecut=    40.00 Ry     beta= 0.50
     Davidson diagonalization with overlap
     ethr =  6.74E-08,  avg # of iterations =  2.0

     total cpu time spent up to now is       98.1 secs

     total energy              =     -90.74912310 Ry
     Harris-Foulkes estimate   =     -90.74912351 Ry
     estimated scf accuracy    <       0.00000155 Ry

     iteration #  8     ecut=    40.00 Ry     beta= 0.50
     Davidson diagonalization with overlap
     ethr =  4.85E-09,  avg # of iterations =  2.6

     total cpu time spent up to now is      100.2 secs

     total energy              =     -90.74912330 Ry
     Harris-Foulkes estimate   =     -90.74912344 Ry
     estimated scf accuracy    <       0.00000053 Ry

     iteration #  9     ecut=    40.00 Ry     beta= 0.50
     Davidson diagonalization with overlap
     ethr =  1.66E-09,  avg # of iterations =  1.5

     total cpu time spent up to now is      101.8 secs

     End of self-consistent calculation

          k = 0.0000 0.0000 0.0000 (  2321 PWs)   bands (ev):

   -13.7218 -12.5778 -11.9527  -8.4819  -8.1059  -3.6592  -2.7252  -1.2095
    -0.2877  -0.1675   0.2757   0.6287   0.8538   1.5851   3.8298   5.0203
     7.7213   9.4241  10.1003  10.4889

          k =-0.0424 0.0396 0.7920 (  2281 PWs)   bands (ev):

   -12.6100 -11.5941 -10.7953  -8.0606  -6.9791  -3.8884  -3.7272  -2.6654
    -2.4578  -1.5451  -0.4824   0.0260   0.7813   1.6476   4.0726   4.8147
     5.7816   6.5752   9.7946  10.8940

          k = 0.0848-0.0792-1.5839 (  2286 PWs)   bands (ev):

    -9.6418  -9.4108  -9.2914  -8.3055  -7.6647  -6.7112  -5.2665  -4.4135
    -3.1797  -2.9166  -2.0502   2.3171   2.6851   2.9999   3.3834   3.7972
     4.9376   5.2851   7.9080   9.5120

          k =-0.0174-0.9492-0.0487 (  2306 PWs)   bands (ev):

   -13.5256 -12.8232 -11.3215  -9.8127  -6.5520  -5.3323  -1.9935  -1.7554
    -1.2917  -0.3103  -0.0167   1.1443   1.3040   1.3776   3.2119   7.5656
     8.0877   9.4752   9.5462  12.5924

          k =-0.0598-0.9096 0.7432 (  2301 PWs)   bands (ev):

   -12.4530 -11.7112 -10.3921  -8.8029  -6.2169  -4.7229  -3.7035  -2.3538
    -2.1381  -1.5348  -0.8851  -0.6549  -0.3949   2.3753   3.7856   4.8013
     6.2708   7.6569   9.0718  11.7666

          k = 0.0674-1.0285-1.6327 (  2292 PWs)   bands (ev):

    -9.5924  -9.3534  -9.1017  -8.3939  -7.6207  -6.7160  -5.2554  -4.5481
    -3.2237  -2.9200  -2.0369   1.7832   1.9473   2.5944   3.3414   3.7171
     4.9251   5.5556   7.6242   9.9766

          k =-0.4779 0.0160 0.0285 (  2304 PWs)   bands (ev):

   -13.5994 -13.0347 -11.2604  -9.7237  -6.4888  -5.2336  -1.3772  -1.2493
    -0.4048  -0.3188   0.0720   0.9681   1.1346   1.3008   2.5468   6.7763
     8.1168   8.8944   9.5023   9.8225

          k =-0.5203 0.0556 0.8204 (  2290 PWs)   bands (ev):

   -12.5249 -11.9003 -10.3305  -8.7359  -6.1682  -4.6487  -3.7263  -2.3957
    -2.1281  -1.5413  -0.7468  -0.0482   0.8249   1.9422   3.4011   4.8709
     6.2163   7.2429   8.5013  11.2077

          k =-0.3931-0.0633-1.5555 (  2300 PWs)   bands (ev):

    -9.6559  -9.4030  -9.2539  -8.4090  -7.5687  -6.7348  -5.2132  -4.4829
    -3.1929  -2.9036  -2.0367   2.2823   2.7333   3.0308   3.3696   3.7978
     4.9272   5.2467   7.9260   9.6271

          k =-0.4953-0.9333-0.0203 (  2314 PWs)   bands (ev):

   -13.5879 -12.4945 -11.9059  -8.6396  -8.1964  -3.6529  -2.7289  -2.3907
    -0.6053  -0.2826  -0.1020   0.6357   0.8776   1.5790   4.8498   5.9263
     7.6956  10.0939  10.5155  11.9790

          k =-0.5378-0.8937 0.7717 (  2303 PWs)   bands (ev):

   -12.4896 -11.5212 -10.7485  -8.1707  -7.0702  -3.8881  -3.7114  -2.6319
    -2.4788  -1.5391  -1.1292  -0.4449   0.4473   1.2589   4.4513   5.1031
     6.3340   6.6783   9.8948  11.2111

          k =-0.4105-1.0125-1.6042 (  2308 PWs)   bands (ev):

    -9.5194  -9.3421  -9.2620  -8.2741  -7.6625  -6.6829  -5.3692  -4.4724
    -3.1924  -2.9322  -2.0527   1.6937   2.0343   2.6006   3.3014   3.7771
     5.0503   5.3779   7.5976  10.1337

     the Fermi energy is     5.1435 ev

!    total energy              =     -90.74912336 Ry
     Harris-Foulkes estimate   =     -90.74912337 Ry
     estimated scf accuracy    <       0.00000005 Ry

     The total energy is the sum of the following terms:

     one-electron contribution =     -35.62748595 Ry
     hartree contribution      =      31.87570760 Ry
     xc contribution           =     -27.65275735 Ry
     ewald contribution        =     -59.34526781 Ry
     smearing contrib. (-TS)   =       0.00068015 Ry

     convergence has been achieved in   9 iterations

     Forces acting on atoms (cartesian axes, Ry/au):

     atom    1 type  1   force =    -0.00299393    0.00154793   -0.00454029
     atom    2 type  1   force =     0.00657682   -0.00836746    0.00494132
     atom    3 type  1   force =     0.00053278    0.00903362    0.00029139
     atom    4 type  1   force =     0.00295340   -0.00462381    0.00211976
     atom    5 type  1   force =     0.00747153    0.00858073   -0.01614472
     atom    6 type  1   force =     0.00248650    0.00479620    0.00458539
     atom    7 type  1   force =    -0.01285558   -0.00209587   -0.00386953
     atom    8 type  1   force =    -0.00417153   -0.00887134    0.01261668

     Total force =     0.034153     Total SCF correction =     0.000355


     Computing stress (Cartesian axis) and pressure

          total   stress  (Ry/bohr**3)                   (kbar)     P=        5.51
   0.00006665  -0.00007264  -0.00003364            9.80      -10.69       -4.95
  -0.00007264  -0.00000097   0.00004976          -10.69       -0.14        7.32
  -0.00003364   0.00004976   0.00004673           -4.95        7.32        6.87


     number of scf cycles    =   8
     number of bfgs steps    =   7

     enthalpy old            =     -90.7472658861 Ry
     enthalpy new            =     -90.7490863706 Ry

     CASE: enthalpy_new < enthalpy_old

     new trust radius        =       0.1118652061 bohr
[...]

          total   stress  (Ry/bohr**3)                   (kbar)     P=        0.58
   0.00000666  -0.00000112  -0.00000500            0.98       -0.17       -0.74
  -0.00000112   0.00000536   0.00000231           -0.17        0.79        0.34
  -0.00000500   0.00000231  -0.00000017           -0.74        0.34       -0.02


     number of scf cycles    =  46
     number of bfgs steps    =  45

     enthalpy old            =     -90.7682031271 Ry
     enthalpy new            =     -90.7682368253 Ry

     CASE: enthalpy_new < enthalpy_old

     new trust radius        =       0.0067249389 bohr
     new conv_thr            =       0.0000000100 Ry

     new unit-cell volume =    485.54708 a.u.^3 (    71.95065 Ang^3 )
     density =      2.21557 g/cm^3

CELL_PARAMETERS (bohr)
  13.953606524  -1.731270505   1.337232241
  -0.638375204   7.623244979   0.122919775
   0.385729817   0.034340566   4.651520118

ATOMIC_POSITIONS (crystal)
C             0.3192011877        0.3357273485       -0.0474923296
C             0.2336776744        0.4258041849        0.4973238522
C             0.6965853077        0.9498290429        0.2649253156
C             0.8568903665        0.8129632571        0.1842953686
C             0.6136445156        1.0239696528        0.8074482480
C             0.4624124961        0.1771238022       -0.1175177259
C             0.0902814944        0.5840320025        0.5673597044
C             0.9397929576        0.7388187090        0.6417925666



     Writing output data file ./pp.save/
     NEW-OLD atomic charge density approx. for the potential
     extrapolated charge   32.04036, renormalised to   32.00000

     total cpu time spent up to now is     2403.6 secs

     Self-consistent Calculation

     iteration #  1     ecut=    40.00 Ry     beta= 0.50
     Davidson diagonalization with overlap
     ethr =  1.00E-06,  avg # of iterations =  3.3

     Threshold (ethr) on eigenvalues was too large:
     Diagonalizing with lowered threshold

     Davidson diagonalization with overlap
     ethr =  9.87E-08,  avg # of iterations =  1.8

     total cpu time spent up to now is     2427.7 secs

     total energy              =     -90.76824802 Ry
     Harris-Foulkes estimate   =     -90.75338046 Ry
     estimated scf accuracy    <       0.00003194 Ry

     iteration #  2     ecut=    40.00 Ry     beta= 0.50
     Davidson diagonalization with overlap
     ethr =  9.98E-08,  avg # of iterations =  3.2

     total cpu time spent up to now is     2442.0 secs

     total energy              =     -90.76828016 Ry
     Harris-Foulkes estimate   =     -90.76829310 Ry
     estimated scf accuracy    <       0.00003749 Ry

     iteration #  3     ecut=    40.00 Ry     beta= 0.50
     Davidson diagonalization with overlap
     ethr =  9.98E-08,  avg # of iterations =  1.8

     total cpu time spent up to now is     2451.8 secs

     total energy              =     -90.76828177 Ry
     Harris-Foulkes estimate   =     -90.76828791 Ry
     estimated scf accuracy    <       0.00003014 Ry

     iteration #  4     ecut=    40.00 Ry     beta= 0.50
     Davidson diagonalization with overlap
     ethr =  9.42E-08,  avg # of iterations =  1.0

     total cpu time spent up to now is     2459.7 secs

     total energy              =     -90.76828363 Ry
     Harris-Foulkes estimate   =     -90.76828508 Ry
     estimated scf accuracy    <       0.00000537 Ry

     iteration #  5     ecut=    40.00 Ry     beta= 0.50
     Davidson diagonalization with overlap
     ethr =  1.68E-08,  avg # of iterations =  1.4

     total cpu time spent up to now is     2468.7 secs

     total energy              =     -90.76828337 Ry
     Harris-Foulkes estimate   =     -90.76828418 Ry
     estimated scf accuracy    <       0.00000188 Ry

     iteration #  6     ecut=    40.00 Ry     beta= 0.50
     Davidson diagonalization with overlap
     ethr =  5.89E-09,  avg # of iterations =  2.0

     total cpu time spent up to now is     2479.3 secs

     total energy              =     -90.76828369 Ry
     Harris-Foulkes estimate   =     -90.76828370 Ry
     estimated scf accuracy    <       0.00000006 Ry

     iteration #  7     ecut=    40.00 Ry     beta= 0.50
     Davidson diagonalization with overlap
     ethr =  1.84E-10,  avg # of iterations =  3.2

     total cpu time spent up to now is     2494.1 secs

     total energy              =     -90.76828370 Ry
     Harris-Foulkes estimate   =     -90.76828371 Ry
     estimated scf accuracy    <       0.00000002 Ry

     iteration #  8     ecut=    40.00 Ry     beta= 0.50
     Davidson diagonalization with overlap
     ethr =  5.76E-11,  avg # of iterations =  2.6

     total cpu time spent up to now is     2506.9 secs

     End of self-consistent calculation

          k = 0.0000 0.0000 0.0000 (  2321 PWs)   bands (ev):

   -12.6118 -11.3127 -10.6897  -7.1742  -6.8969  -2.4961  -1.4666   0.2697
     0.8388   1.0085   1.1489   1.7365   1.9383   2.7523   4.6524   5.6825
     8.8880  11.1787  11.6529  12.9489

          k =-0.0782-0.0193 0.7913 (  2281 PWs)   bands (ev):

   -11.4996 -10.3667  -9.5290  -6.7643  -5.8264  -2.7414  -2.5228  -1.4892
    -1.3160  -0.3083   0.7078   1.5150   2.0690   2.2854   5.0826   5.8600
     6.7152   7.6674  11.1628  12.4129

          k = 0.1565 0.0386-1.5826 (  2286 PWs)   bands (ev):

    -8.5301  -8.3038  -8.1136  -7.1570  -6.3734  -5.4577  -4.0217  -3.1832
    -2.0132  -1.7273  -0.8771   3.7942   3.8765   4.1954   4.6061   5.0633
     5.9348   5.9904   8.6269  10.8140

          k =-0.1218-0.9680 0.0172 (  2306 PWs)   bands (ev):

   -12.2482 -11.5359 -10.2300  -8.6930  -5.4123  -4.1199  -1.0463  -0.7115
    -0.0247   0.8537   1.2160   2.2152   2.4702   3.2294   5.0241   8.7357
     9.2311  10.5167  10.7904  14.0006

          k =-0.2000-0.9873 0.8085 (  2301 PWs)   bands (ev):

   -11.1742 -10.4633  -9.2656  -7.7067  -5.0832  -3.5425  -2.4980  -1.2447
    -0.9151  -0.3041  -0.0132   0.4218   0.7868   4.0330   5.4955   5.9230
     7.4411   9.0042  10.1236  13.3848

          k = 0.0347-0.9294-1.5653 (  2292 PWs)   bands (ev):

    -8.2602  -8.1603  -7.9733  -7.1737  -6.5630  -5.5239  -4.1948  -3.3231
    -2.0368  -1.8222  -0.8496   2.6525   3.0105   3.5947   4.5326   4.9456
     6.3803   7.0296   9.1749  11.7751

          k =-0.5330-0.0454 0.0445 (  2304 PWs)   bands (ev):

   -12.4645 -11.8431  -9.9404  -8.4219  -5.3324  -4.0013  -0.1088   0.2901
     0.7998   0.9434   1.1599   1.4905   2.2063   2.4850   3.2592   8.0162
     9.3077  10.0236  10.5632  12.6976

          k =-0.6113-0.0647 0.8358 (  2290 PWs)   bands (ev):

   -11.4038 -10.7043  -9.0330  -7.4756  -4.9757  -3.4811  -2.6007  -1.2645
    -0.8615  -0.3306   0.4279   1.4769   2.0183   2.6600   4.1454   6.0318
     7.5381   8.1422   9.8129  13.3284

          k =-0.3766-0.0067-1.5380 (  2300 PWs)   bands (ev):

    -8.5390  -8.3154  -8.0920  -7.1324  -6.4044  -5.4682  -3.9912  -3.1988
    -2.0085  -1.7343  -0.8746   3.6695   3.9808   4.2464   4.6214   5.0287
     5.9502   5.9688   8.6095  10.8705

          k =-0.6548-1.0134 0.0618 (  2314 PWs)   bands (ev):

   -12.2709 -11.3060 -10.7348  -7.4622  -7.1457  -2.4523  -1.6473  -1.4124
     0.8773   0.9364   1.3835   1.8091   2.0010   2.6959   6.5008   7.4848
     8.7990  11.1713  12.4517  13.2513

          k =-0.7330-1.0327 0.8531 (  2303 PWs)   bands (ev):

   -11.1948 -10.2928  -9.6291  -7.0099  -6.0003  -2.7533  -2.4795  -1.3991
    -1.3010  -0.3794  -0.3230   0.7084   1.6440   2.9220   5.7418   6.6063
     7.5567   7.8324  11.3765  12.5492

          k =-0.4983-0.9748-1.5208 (  2308 PWs)   bands (ev):

    -8.2738  -8.1623  -7.9489  -7.1857  -6.5579  -5.5222  -4.2194  -3.3040
    -2.0379  -1.8076  -0.8602   2.7116   2.9752   3.5664   4.5072   4.9653
     6.2725   7.1389   9.2219  11.7355

     the Fermi energy is     6.3593 ev

!    total energy              =     -90.76828371 Ry
     Harris-Foulkes estimate   =     -90.76828371 Ry
     estimated scf accuracy    <          1.8E-09 Ry

     The total energy is the sum of the following terms:

     one-electron contribution =     -16.93781913 Ry
     hartree contribution      =      23.92062590 Ry
     xc contribution           =     -27.65680103 Ry
     ewald contribution        =     -70.09720189 Ry
     smearing contrib. (-TS)   =       0.00291243 Ry

     convergence has been achieved in   8 iterations

     Forces acting on atoms (cartesian axes, Ry/au):

     atom    1 type  1   force =     0.00016245    0.00036482    0.00013246
     atom    2 type  1   force =    -0.00064262   -0.00049034   -0.00016187
     atom    3 type  1   force =    -0.00049393    0.00035885    0.00022600
     atom    4 type  1   force =     0.00007276    0.00042819   -0.00017986
     atom    5 type  1   force =    -0.00054571   -0.00023461    0.00023313
     atom    6 type  1   force =    -0.00004850    0.00027476   -0.00021494
     atom    7 type  1   force =     0.00207729   -0.00043549    0.00000793
     atom    8 type  1   force =    -0.00058173   -0.00026619   -0.00004286

     Total force =     0.002636     Total SCF correction =     0.000081


     Computing stress (Cartesian axis) and pressure

          total   stress  (Ry/bohr**3)                   (kbar)     P=        0.45
   0.00000613  -0.00000386   0.00000107            0.90       -0.57        0.16
  -0.00000386   0.00000306  -0.00000013           -0.57        0.45       -0.02
   0.00000107  -0.00000013  -0.00000010            0.16       -0.02       -0.01


     number of scf cycles    =  47
     number of bfgs steps    =  46

     enthalpy old            =     -90.7682368253 Ry
     enthalpy new            =     -90.7682507014 Ry

     CASE: enthalpy_new < enthalpy_old

     new trust radius        =       0.0028105949 bohr
     new conv_thr            =       0.0000000100 Ry

     new unit-cell volume =    485.62793 a.u.^3 (    71.96263 Ang^3 )
     density =      2.21520 g/cm^3

CELL_PARAMETERS (bohr)
  13.952441463  -1.732355243   1.336869048
  -0.638952765   7.625232409   0.122321522
   0.385643449   0.034100055   4.651509433

ATOMIC_POSITIONS (crystal)
C             0.3192229658        0.3357601544       -0.0476138612
C             0.2336385920        0.4256476476        0.4972540631
C             0.6965076045        0.9497209280        0.2650866258
C             0.8569550752        0.8131530647        0.1841655857
C             0.6134923805        1.0236881166        0.8077145999
C             0.4623714781        0.1770924126       -0.1173721083
C             0.0904468380        0.5842889380        0.5672680687
C             0.9398510660        0.7389167380        0.6416320262



     Writing output data file ./pp.save/
     NEW-OLD atomic charge density approx. for the potential
     extrapolated charge   32.00533, renormalised to   32.00000

     total cpu time spent up to now is     2507.3 secs

     Self-consistent Calculation

     iteration #  1     ecut=    40.00 Ry     beta= 0.50
     Davidson diagonalization with overlap
     ethr =  1.00E-06,  avg # of iterations =  2.0

     Threshold (ethr) on eigenvalues was too large:
     Diagonalizing with lowered threshold

     Davidson diagonalization with overlap
     ethr =  9.44E-09,  avg # of iterations =  3.0

     total cpu time spent up to now is     2532.5 secs

     total energy              =     -90.76828701 Ry
     Harris-Foulkes estimate   =     -90.76632045 Ry
     estimated scf accuracy    <       0.00000328 Ry

     iteration #  2     ecut=    40.00 Ry     beta= 0.50
     Davidson diagonalization with overlap
     ethr =  1.03E-08,  avg # of iterations =  2.4

     total cpu time spent up to now is     2545.3 secs

     total energy              =     -90.76828681 Ry
     Harris-Foulkes estimate   =     -90.76828938 Ry
     estimated scf accuracy    <       0.00000956 Ry

     iteration #  3     ecut=    40.00 Ry     beta= 0.50
     Davidson diagonalization with overlap
     ethr =  1.03E-08,  avg # of iterations =  2.1

     total cpu time spent up to now is     2556.3 secs

     total energy              =     -90.76828790 Ry
     Harris-Foulkes estimate   =     -90.76828878 Ry
     estimated scf accuracy    <       0.00000444 Ry

     iteration #  4     ecut=    40.00 Ry     beta= 0.50
     Davidson diagonalization with overlap
     ethr =  1.03E-08,  avg # of iterations =  1.1

     total cpu time spent up to now is     2564.7 secs

     total energy              =     -90.76828831 Ry
     Harris-Foulkes estimate   =     -90.76828839 Ry
     estimated scf accuracy    <       0.00000027 Ry

     iteration #  5     ecut=    40.00 Ry     beta= 0.50
     Davidson diagonalization with overlap
     ethr =  8.34E-10,  avg # of iterations =  2.0

     total cpu time spent up to now is     2575.6 secs

     total energy              =     -90.76828836 Ry
     Harris-Foulkes estimate   =     -90.76828836 Ry
     estimated scf accuracy    <       0.00000004 Ry

     iteration #  6     ecut=    40.00 Ry     beta= 0.50
     Davidson diagonalization with overlap
     ethr =  1.17E-10,  avg # of iterations =  2.2

     total cpu time spent up to now is     2586.8 secs

     End of self-consistent calculation

          k = 0.0000 0.0000 0.0000 (  2321 PWs)   bands (ev):

   -12.6113 -11.3148 -10.6904  -7.1773  -6.8968  -2.4984  -1.4690   0.2681
     0.8406   1.0057   1.1486   1.7343   1.9362   2.7516   4.6494   5.6829
     8.8861  11.1771  11.6503  12.9454

          k =-0.0782-0.0192 0.7913 (  2281 PWs)   bands (ev):

   -11.4991 -10.3686  -9.5299  -6.7661  -5.8274  -2.7412  -2.5235  -1.4911
    -1.3187  -0.3097   0.7066   1.5137   2.0661   2.2848   5.0801   5.8580
     6.7143   7.6653  11.1611  12.4104

          k = 0.1564 0.0385-1.5826 (  2286 PWs)   bands (ev):

    -8.5302  -8.3028  -8.1151  -7.1584  -6.3749  -5.4583  -4.0232  -3.1850
    -2.0153  -1.7279  -0.8788   3.7930   3.8749   4.1958   4.6031   5.0613
     5.9320   5.9866   8.6259  10.8127

          k =-0.1218-0.9678 0.0172 (  2306 PWs)   bands (ev):

   -12.2477 -11.5384 -10.2310  -8.6946  -5.4133  -4.1219  -1.0444  -0.7142
    -0.0269   0.8553   1.2136   2.2123   2.4705   3.2286   5.0229   8.7316
     9.2284  10.5161  10.7871  13.9986

          k =-0.2000-0.9870 0.8085 (  2301 PWs)   bands (ev):

   -11.1736 -10.4658  -9.2667  -7.7083  -5.0841  -3.5443  -2.4970  -1.2471
    -0.9162  -0.3056  -0.0129   0.4203   0.7854   4.0324   5.4937   5.9206
     7.4394   9.0018  10.1213  13.3828

          k = 0.0346-0.9293-1.5654 (  2292 PWs)   bands (ev):

    -8.2608  -8.1590  -7.9749  -7.1761  -6.5645  -5.5243  -4.1952  -3.3264
    -2.0384  -1.8216  -0.8518   2.6513   3.0087   3.5950   4.5315   4.9432
     6.3807   7.0288   9.1712  11.7728

          k =-0.5331-0.0454 0.0445 (  2304 PWs)   bands (ev):

   -12.4632 -11.8457  -9.9415  -8.4233  -5.3339  -4.0037  -0.1112   0.2888
     0.8015   0.9407   1.1568   1.4909   2.2035   2.4852   3.2569   8.0160
     9.3052  10.0212  10.5622  12.6943

          k =-0.6113-0.0646 0.8358 (  2290 PWs)   bands (ev):

   -11.4028 -10.7067  -9.0340  -7.4770  -4.9768  -3.4831  -2.5996  -1.2670
    -0.8629  -0.3322   0.4265   1.4757   2.0163   2.6586   4.1433   6.0294
     7.5363   8.1415   9.8103  13.3263

          k =-0.3767-0.0069-1.5380 (  2300 PWs)   bands (ev):

    -8.5394  -8.3140  -8.0936  -7.1342  -6.4056  -5.4691  -3.9916  -3.2022
    -2.0105  -1.7337  -0.8770   3.6687   3.9788   4.2469   4.6189   5.0261
     5.9475   5.9648   8.6088  10.8701

          k =-0.6549-1.0132 0.0617 (  2314 PWs)   bands (ev):

   -12.2705 -11.3089 -10.7352  -7.4653  -7.1453  -2.4544  -1.6475  -1.4143
     0.8790   0.9365   1.3817   1.8073   1.9990   2.6951   6.4982   7.4822
     8.7969  11.1698  12.4454  13.2494

          k =-0.7331-1.0324 0.8530 (  2303 PWs)   bands (ev):

   -11.1943 -10.2955  -9.6297  -7.0119  -6.0011  -2.7533  -2.4799  -1.4005
    -1.3038  -0.3805  -0.3236   0.7073   1.6438   2.9206   5.7398   6.6044
     7.5541   7.8315  11.3726  12.5469

          k =-0.4985-0.9747-1.5209 (  2308 PWs)   bands (ev):

    -8.2742  -8.1611  -7.9508  -7.1876  -6.5596  -5.5224  -4.2209  -3.3057
    -2.0397  -1.8081  -0.8617   2.7104   2.9727   3.5674   4.5057   4.9635
     6.2727   7.1380   9.2180  11.7331

     the Fermi energy is     6.3589 ev

!    total energy              =     -90.76828836 Ry
     Harris-Foulkes estimate   =     -90.76828836 Ry
     estimated scf accuracy    <          2.5E-09 Ry

     The total energy is the sum of the following terms:

     one-electron contribution =     -16.94737968 Ry
     hartree contribution      =      23.92340026 Ry
     xc contribution           =     -27.65607497 Ry
     ewald contribution        =     -70.09112815 Ry
     smearing contrib. (-TS)   =       0.00289418 Ry

     convergence has been achieved in   6 iterations

     Forces acting on atoms (cartesian axes, Ry/au):

     atom    1 type  1   force =    -0.00007884    0.00014810    0.00025856
     atom    2 type  1   force =    -0.00027157   -0.00009763   -0.00013316
     atom    3 type  1   force =    -0.00025114    0.00015045    0.00021689
     atom    4 type  1   force =    -0.00016683    0.00010553   -0.00008152
     atom    5 type  1   force =    -0.00013704   -0.00005931   -0.00003525
     atom    6 type  1   force =     0.00009427    0.00002086   -0.00031317
     atom    7 type  1   force =     0.00106383   -0.00018628   -0.00000305
     atom    8 type  1   force =    -0.00025267   -0.00008172    0.00009070

     Total force =     0.001323     Total SCF correction =     0.000076


     Computing stress (Cartesian axis) and pressure

          total   stress  (Ry/bohr**3)                   (kbar)     P=        0.09
   0.00000222  -0.00000134   0.00000192            0.33       -0.20        0.28
  -0.00000134   0.00000092  -0.00000057           -0.20        0.14       -0.08
   0.00000192  -0.00000057  -0.00000123            0.28       -0.08       -0.18


     number of scf cycles    =  48
     number of bfgs steps    =  47

     enthalpy old            =     -90.7682507014 Ry
     enthalpy new            =     -90.7682553504 Ry

     CASE: enthalpy_new < enthalpy_old

     new trust radius        =       0.0032089640 bohr
     new conv_thr            =       0.0000000100 Ry

     new unit-cell volume =    485.65519 a.u.^3 (    71.96667 Ang^3 )
     density =      2.21508 g/cm^3

CELL_PARAMETERS (bohr)
  13.952378611  -1.732609701   1.340838238
  -0.638702702   7.626424800   0.125423282
   0.386599693   0.035680466   4.651327855

ATOMIC_POSITIONS (crystal)
C             0.3191987885        0.3356964851       -0.0476714123
C             0.2336205375        0.4255841912        0.4972431706
C             0.6964446097        0.9496251853        0.2651909736
C             0.8569893403        0.8132786697        0.1841621585
C             0.6133924409        1.0234674071        0.8078036027
C             0.4623008375        0.1769090151       -0.1175325986
C             0.0906194505        0.5846271613        0.5673095314
C             0.9399199952        0.7390798853        0.6416295741



     Writing output data file ./pp.save/
     NEW-OLD atomic charge density approx. for the potential
     extrapolated charge   32.00180, renormalised to   32.00000

     total cpu time spent up to now is     2587.3 secs

     Self-consistent Calculation

     iteration #  1     ecut=    40.00 Ry     beta= 0.50
     Davidson diagonalization with overlap
     ethr =  1.00E-06,  avg # of iterations =  2.0

     Threshold (ethr) on eigenvalues was too large:
     Diagonalizing with lowered threshold

     Davidson diagonalization with overlap
     ethr =  7.47E-09,  avg # of iterations =  3.5

     total cpu time spent up to now is     2614.2 secs

     total energy              =     -90.76828932 Ry
     Harris-Foulkes estimate   =     -90.76762653 Ry
     estimated scf accuracy    <       0.00000259 Ry

     iteration #  2     ecut=    40.00 Ry     beta= 0.50
     Davidson diagonalization with overlap
