
     Program PWSCF v.6.5 starts on  9Jul2022 at 17: 4:20 

     This program is part of the open-source Quantum ESPRESSO suite
     for quantum simulation of materials; please cite
         "P. Giannozzi et al., J. Phys.:Condens. Matter 21 395502 (2009);
         "P. Giannozzi et al., J. Phys.:Condens. Matter 29 465901 (2017);
          URL http://www.quantum-espresso.org", 
     in publications or presentations arising from this work. More details at
     http://www.quantum-espresso.org/quote

     Parallel version (MPI), running on    96 processors

     MPI processes distributed on     2 nodes
     R & G space division:  proc/nbgrp/npool/nimage =      96
     Waiting for input...
     Reading input from standard input
     Message from routine read_cards :
     DEPRECATED: no units specified in CELL_PARAMETERS card

     Current dimensions of program PWSCF are:
     Max number of different atomic species (ntypx) = 10
     Max number of k-points (npk) =  40000
     Max angular momentum in pseudopotentials (lmaxx) =  3

     Subspace diagonalization in iterative solution of the eigenvalue problem:
     one sub-group per band group will be used
     scalapack distributed-memory algorithm (size of sub-group:  9*  9 procs)

 
     Parallelization info
     --------------------
     sticks:   dense  smooth     PW     G-vecs:    dense   smooth      PW
     Min          15      15      4                  191      191      32
     Max          16      16      5                  194      194      35
     Sum        1463    1463    459                18389    18389    3235
 


     bravais-lattice index     =            0
     lattice parameter (alat)  =      14.7707  a.u.
     unit-cell volume          =     537.3644 (a.u.)^3
     number of atoms/cell      =            8
     number of atomic types    =            1
     number of electrons       =        32.00
     number of Kohn-Sham states=           20
     kinetic-energy cutoff     =      40.0000  Ry
     charge density cutoff     =     160.0000  Ry
     convergence threshold     =      1.0E-06
     mixing beta               =       0.5000
     number of iterations used =            8  plain     mixing
     Exchange-correlation=  SLA  PW   PBE  PBE
                           (   1   4   3   4   0   0   0)
     nstep                     =          250


     celldm(1)=  14.770690  celldm(2)=   0.000000  celldm(3)=   0.000000
     celldm(4)=   0.000000  celldm(5)=   0.000000  celldm(6)=   0.000000

     crystal axes: (cart. coord. in units of alat)
               a(1) = (   0.999405   0.034494  -0.000027 )  
               a(2) = (   0.026444   0.528628   0.000176 )  
               a(3) = (   0.000034  -0.000068   0.316173 )  

     reciprocal axes: (cart. coord. in units 2 pi/alat)
               b(1) = (  1.002326 -0.050141 -0.000118 )  
               b(2) = ( -0.065404  1.894961  0.000413 )  
               b(3) = (  0.000122 -0.001059  3.162821 )  


     PseudoPot. # 1 for C  read from file:
     ./C.pbe-van_bm.upf
     MD5 check sum: 1a69bf6b8db32088f5b2163dbdb77a27
     Pseudo is Ultrasoft, Zval =  4.0
     Generated by new atomic code, or converted to UPF format
     Using radial grid of  721 points,  4 beta functions with: 
                l(1) =   0
                l(2) =   0
                l(3) =   1
                l(4) =   1
     Q(r) pseudized with  8 coefficients,  rinner =    0.800   0.800   0.800


     atomic species   valence    mass     pseudopotential
        C              4.00    12.00000     C ( 1.00)

     No symmetry found



   Cartesian axes

     site n.     atom                  positions (alat units)
         1           C   tau(   1) = (   0.6233944   0.3872959   0.1711653  )
         2           C   tau(   2) = (   0.2304007   0.1888952   0.1718836  )
         3           C   tau(   3) = (   0.2632884   0.3628887   0.1720383  )
         4           C   tau(   4) = (   0.6887349   0.3374193   0.0130700  )
         5           C   tau(   5) = (   0.1756350   0.1035475   0.0137723  )
         6           C   tau(   6) = (   0.2572427   0.4495638   0.0139887  )
         7           C   tau(   7) = (  -0.0158068   0.1262961   0.3294037  )
         8           C   tau(   8) = (   0.8415443   0.2392707   0.0130006  )

     number of k points=    14  Marzari-Vanderbilt smearing, width (Ry)=  0.0200
                       cart. coord. in units 2pi/alat
        k(    1) = (   0.0000000   0.0000000   0.0000000), wk =   0.0833333
        k(    2) = (   0.0000306  -0.0002648   0.7907052), wk =   0.1666667
        k(    3) = (  -0.0000611   0.0005296  -1.5814103), wk =   0.0833333
        k(    4) = (  -0.0218012   0.6316537   0.0001376), wk =   0.1666667
        k(    5) = (  -0.0217707   0.6313889   0.7908428), wk =   0.1666667
        k(    6) = (  -0.0218624   0.6321834  -1.5812727), wk =   0.1666667
        k(    7) = (  -0.0218318   0.6319185  -0.7905676), wk =   0.1666667
        k(    8) = (  -0.5011630   0.0250703   0.0000590), wk =   0.0833333
        k(    9) = (  -0.5011324   0.0248055   0.7907642), wk =   0.1666667
        k(   10) = (  -0.5012241   0.0256000  -1.5813513), wk =   0.0833333
        k(   11) = (  -0.5229642   0.6567240   0.0001966), wk =   0.1666667
        k(   12) = (  -0.5229337   0.6564592   0.7909018), wk =   0.1666667
        k(   13) = (  -0.5230254   0.6572537  -1.5812137), wk =   0.1666667
        k(   14) = (  -0.5229948   0.6569889  -0.7905086), wk =   0.1666667

     Dense  grid:    18389 G-vectors     FFT dimensions: (  60,  32,  20)

     Estimated max dynamical RAM per process >       2.58 MB

     Estimated total dynamical RAM >     248.03 MB

     Initial potential from superposition of free atoms

     starting charge   31.99968, renormalised to   32.00000
     Starting wfcs are   32 randomized atomic wfcs

     total cpu time spent up to now is        0.7 secs

     Self-consistent Calculation

     iteration #  1     ecut=    40.00 Ry     beta= 0.50
     Davidson diagonalization with overlap
     ethr =  1.00E-02,  avg # of iterations =  2.0

     total cpu time spent up to now is        1.5 secs

     total energy              =     -90.42432918 Ry
     Harris-Foulkes estimate   =     -90.81390010 Ry
     estimated scf accuracy    <       0.78938661 Ry

     iteration #  2     ecut=    40.00 Ry     beta= 0.50
     Davidson diagonalization with overlap
     ethr =  2.47E-03,  avg # of iterations =  2.6

     total cpu time spent up to now is        2.2 secs

     total energy              =     -90.18493510 Ry
     Harris-Foulkes estimate   =     -90.66061413 Ry
     estimated scf accuracy    <       1.72522594 Ry

     iteration #  3     ecut=    40.00 Ry     beta= 0.50
     Davidson diagonalization with overlap
     ethr =  2.47E-03,  avg # of iterations =  2.4

     total cpu time spent up to now is        2.8 secs

     total energy              =     -90.40438310 Ry
     Harris-Foulkes estimate   =     -90.68182854 Ry
     estimated scf accuracy    <       1.55605079 Ry

     iteration #  4     ecut=    40.00 Ry     beta= 0.50
     Davidson diagonalization with overlap
     ethr =  2.47E-03,  avg # of iterations =  1.1

     total cpu time spent up to now is        3.3 secs

     total energy              =     -90.47293517 Ry
     Harris-Foulkes estimate   =     -90.58690360 Ry
     estimated scf accuracy    <       0.46428724 Ry

     iteration #  5     ecut=    40.00 Ry     beta= 0.50
     Davidson diagonalization with overlap
     ethr =  1.45E-03,  avg # of iterations =  1.1

     total cpu time spent up to now is        3.8 secs

     total energy              =     -90.50466202 Ry
     Harris-Foulkes estimate   =     -90.51466512 Ry
     estimated scf accuracy    <       0.10022150 Ry

     iteration #  6     ecut=    40.00 Ry     beta= 0.50
     Davidson diagonalization with overlap
     ethr =  3.13E-04,  avg # of iterations =  1.6

     total cpu time spent up to now is        4.3 secs

     total energy              =     -90.50529021 Ry
     Harris-Foulkes estimate   =     -90.50834891 Ry
     estimated scf accuracy    <       0.02987158 Ry

     iteration #  7     ecut=    40.00 Ry     beta= 0.50
     Davidson diagonalization with overlap
     ethr =  9.33E-05,  avg # of iterations =  1.5

     total cpu time spent up to now is        4.8 secs

     total energy              =     -90.50500766 Ry
     Harris-Foulkes estimate   =     -90.50644364 Ry
     estimated scf accuracy    <       0.00833762 Ry

     iteration #  8     ecut=    40.00 Ry     beta= 0.50
     Davidson diagonalization with overlap
     ethr =  2.61E-05,  avg # of iterations =  3.5

     total cpu time spent up to now is        6.0 secs

     total energy              =     -90.50592671 Ry
     Harris-Foulkes estimate   =     -90.50597546 Ry
     estimated scf accuracy    <       0.00028994 Ry

     iteration #  9     ecut=    40.00 Ry     beta= 0.50
     Davidson diagonalization with overlap
     ethr =  9.06E-07,  avg # of iterations =  3.6

     total cpu time spent up to now is        7.6 secs

     total energy              =     -90.50593360 Ry
     Harris-Foulkes estimate   =     -90.50603046 Ry
     estimated scf accuracy    <       0.00066566 Ry

     iteration # 10     ecut=    40.00 Ry     beta= 0.50
     Davidson diagonalization with overlap
     ethr =  9.06E-07,  avg # of iterations =  1.5

     total cpu time spent up to now is        8.2 secs

     total energy              =     -90.50597215 Ry
     Harris-Foulkes estimate   =     -90.50597589 Ry
     estimated scf accuracy    <       0.00001277 Ry

     iteration # 11     ecut=    40.00 Ry     beta= 0.50
     Davidson diagonalization with overlap
     ethr =  3.99E-08,  avg # of iterations =  2.7

     total cpu time spent up to now is        8.9 secs

     total energy              =     -90.50597426 Ry
     Harris-Foulkes estimate   =     -90.50597582 Ry
     estimated scf accuracy    <       0.00000865 Ry

     iteration # 12     ecut=    40.00 Ry     beta= 0.50
     Davidson diagonalization with overlap
     ethr =  2.70E-08,  avg # of iterations =  1.0

     total cpu time spent up to now is        9.4 secs

     End of self-consistent calculation

          k = 0.0000 0.0000 0.0000 (  2311 PWs)   bands (ev):

   -14.7976 -12.3438 -10.5717  -8.8584  -7.7801  -5.0976  -3.8648  -1.1519
    -0.2705   0.0243   0.1890   1.1690   2.2576   2.7626   4.9945   5.8292
     6.1393   8.0220   9.0767  11.2927

          k = 0.0000-0.0003 0.7907 (  2290 PWs)   bands (ev):

   -13.6869 -11.3341  -9.6743  -8.0355  -7.0614  -4.6145  -4.4621  -3.2868
    -2.7500  -1.0998  -0.1604   0.7815   1.5192   2.3527   3.0205   5.1369
     5.8396   7.6480   9.2115   9.4863

          k =-0.0001 0.0005-1.5814 (  2306 PWs)   bands (ev):

   -10.8424 -10.1616  -9.2399  -7.5680  -7.3707  -5.7206  -5.4059  -3.6986
    -3.3401  -2.9899  -1.8341  -0.7194   2.3975   2.6276   4.1295   5.0398
     5.5909   6.1161   7.5948   8.6906

          k =-0.0218 0.6317 0.0001 (  2316 PWs)   bands (ev):

   -14.1865 -12.3216 -11.9569  -9.7813  -5.9708  -4.4063  -3.0786  -1.5212
    -0.5182  -0.3764   0.1954   1.1540   1.2628   2.2305   4.5212   5.7684
     5.8069   8.2903  10.7408  11.9781

          k =-0.0218 0.6314 0.7908 (  2287 PWs)   bands (ev):

   -13.0864 -11.3117 -10.9151  -8.9771  -5.5139  -4.4186  -3.6188  -2.9266
    -2.7269  -2.1225  -0.6737   0.5714   1.4910   2.4310   3.0728   4.8663
     5.8763   7.9056   8.8946  10.4174

          k =-0.0219 0.6322-1.5813 (  2286 PWs)   bands (ev):

   -10.4333  -9.5908  -9.1345  -7.8307  -7.3766  -7.3263  -7.0428  -3.2927
    -2.2918  -2.0737  -1.0957  -0.4529   2.0419   2.8263   3.9814   5.1909
     5.7351   5.8651   7.1841   8.6010

          k =-0.0218 0.6319-0.7906 (  2287 PWs)   bands (ev):

   -13.0859 -11.3118 -10.9162  -8.9770  -5.5095  -4.4208  -3.6229  -2.9284
    -2.7276  -2.1163  -0.6739   0.5711   1.4916   2.4290   3.0727   4.8675
     5.8776   7.9053   8.8943  10.4162

          k =-0.5012 0.0251 0.0001 (  2298 PWs)   bands (ev):

   -14.7933 -12.3913 -10.4334  -8.9769  -7.7802  -5.2155  -3.6042  -1.1508
    -0.4045   0.1267   0.1855   0.8625   2.2615   2.9101   5.1982   5.8286
     6.0431   7.9883   9.5286  11.0454

          k =-0.5011 0.0248 0.7908 (  2288 PWs)   bands (ev):

   -13.6826 -11.3797  -9.5476  -8.1436  -7.0609  -4.6390  -4.4790  -3.2436
    -2.6674  -1.0899  -0.1739   0.9737   1.1243   2.3283   3.1045   5.4221
     5.7048   7.5351   9.1619   9.7975

          k =-0.5012 0.0256-1.5814 (  2300 PWs)   bands (ev):

   -10.8367 -10.1602  -9.2728  -7.4917  -7.3822  -5.7949  -5.3892  -3.6987
    -3.3541  -2.9542  -1.8193  -0.6740   2.1976   2.4058   4.9404   5.1789
     5.3561   6.1304   6.8426   8.9784

          k =-0.5230 0.6567 0.0002 (  2302 PWs)   bands (ev):

   -14.1824 -12.3721 -11.9063  -9.7822  -5.9882  -4.3482  -3.1319  -1.3625
    -0.6871  -0.5164   0.1915   1.1567   1.2656   2.4211   5.0061   5.4145
     5.8062   7.8568  10.9071  11.9797

          k =-0.5229 0.6565 0.7909 (  2292 PWs)   bands (ev):

   -13.0824 -11.3586 -10.8663  -8.9821  -5.5158  -4.4102  -3.6271  -2.8889
    -2.7549  -2.1350  -0.5959   0.4509   1.3953   2.3555   3.2852   5.2966
     5.5949   7.8264   8.5855  10.7025

          k =-0.5230 0.6573-1.5812 (  2294 PWs)   bands (ev):

   -10.4310  -9.5893  -9.1417  -7.8269  -7.4428  -7.2611  -7.0399  -3.2933
    -2.2884  -2.0730  -1.1020  -0.4274   2.0485   2.5042   4.7318   5.0567
     5.8571   5.8651   6.2531   9.1233

          k =-0.5230 0.6570-0.7905 (  2294 PWs)   bands (ev):

   -13.0819 -11.3589 -10.8673  -8.9819  -5.5110  -4.4131  -3.6310  -2.8919
    -2.7545  -2.1289  -0.5962   0.4505   1.3953   2.3551   3.2848   5.2998
     5.5932   7.8264   8.5844  10.6994

     the Fermi energy is     5.5718 ev

!    total energy              =     -90.50597472 Ry
     Harris-Foulkes estimate   =     -90.50597520 Ry
     estimated scf accuracy    <       0.00000065 Ry

     The total energy is the sum of the following terms:

     one-electron contribution =     -48.01286671 Ry
     hartree contribution      =      38.16714524 Ry
     xc contribution           =     -27.65928507 Ry
     ewald contribution        =     -53.00079492 Ry
     smearing contrib. (-TS)   =      -0.00017325 Ry

     convergence has been achieved in  12 iterations

     Forces acting on atoms (cartesian axes, Ry/au):

     atom    1 type  1   force =    -0.03460511    0.03826973   -0.00010887
     atom    2 type  1   force =     0.02575177    0.03428501   -0.00006058
     atom    3 type  1   force =    -0.01567136   -0.01927896   -0.00004895
     atom    4 type  1   force =     0.03358443   -0.02447386   -0.00002225
     atom    5 type  1   force =     0.00091786   -0.00554460   -0.00026490
     atom    6 type  1   force =    -0.00531514   -0.00244814   -0.00036252
     atom    7 type  1   force =    -0.02133139   -0.00189699    0.00081505
     atom    8 type  1   force =     0.01666894   -0.01891220    0.00005303

     Total force =     0.089475     Total SCF correction =     0.001900


     Computing stress (Cartesian axis) and pressure

          total   stress  (Ry/bohr**3)                   (kbar)     P=       72.77
   0.00003072   0.00027790  -0.00000542            4.52       40.88       -0.80
   0.00027790   0.00066460  -0.00000378           40.88       97.77       -0.56
  -0.00000542  -0.00000378   0.00078874           -0.80       -0.56      116.03


     BFGS Geometry Optimization

     number of scf cycles    =   1
     number of bfgs steps    =   0

     enthalpy new            =     -90.5059381865 Ry

     new trust radius        =       0.0914149438 bohr
     new conv_thr            =       0.0000010000 Ry

     new unit-cell volume =    557.46337 a.u.^3 (    82.60755 Ang^3 )
     density =      1.92975 g/cm^3

CELL_PARAMETERS (bohr)
  14.776751311   0.620522866  -0.002456018
   0.445146450   7.940633331   0.001860452
  -0.000139282  -0.001454474   4.762179683

ATOMIC_POSITIONS (crystal)
C             0.6029268179        0.6982719261        0.5410046567
C             0.2230761091        0.3472354626        0.5434497827
C             0.2446869998        0.6681070543        0.5437647720
C             0.6757790893        0.5910674901        0.0410622679
C             0.1709311088        0.1840216010        0.0434146816
C             0.2349456328        0.8347964482        0.0437215059
C            -0.0236560964        0.2403471084        1.0418834840
C             0.8326983386        0.3958739092        0.0409808491



     Writing output data file ./pp.save/
     NEW-OLD atomic charge density approx. for the potential
     extrapolated charge   33.15373, renormalised to   32.00000

     total cpu time spent up to now is        9.6 secs

     Self-consistent Calculation

     iteration #  1     ecut=    40.00 Ry     beta= 0.50
     Davidson diagonalization with overlap
     ethr =  1.00E-06,  avg # of iterations = 11.0

     total cpu time spent up to now is       12.5 secs

     total energy              =     -89.78507945 Ry
     Harris-Foulkes estimate   =     -89.16684734 Ry
     estimated scf accuracy    <       0.91539921 Ry

     iteration #  2     ecut=    40.00 Ry     beta= 0.50
     Davidson diagonalization with overlap
     ethr =  2.86E-03,  avg # of iterations =  5.9

     total cpu time spent up to now is       14.0 secs

     total energy              =     -89.60448346 Ry
     Harris-Foulkes estimate   =     -92.27433142 Ry
     estimated scf accuracy    <      15.16414755 Ry

     iteration #  3     ecut=    40.00 Ry     beta= 0.50
     Davidson diagonalization with overlap
     ethr =  2.86E-03,  avg # of iterations =  4.3

     total cpu time spent up to now is       15.1 secs

     total energy              =     -90.55072517 Ry
     Harris-Foulkes estimate   =     -90.64246785 Ry
     estimated scf accuracy    <       1.29195182 Ry

     iteration #  4     ecut=    40.00 Ry     beta= 0.50
     Davidson diagonalization with overlap
     ethr =  2.86E-03,  avg # of iterations =  1.0

     total cpu time spent up to now is       15.5 secs

     total energy              =     -90.53622765 Ry
     Harris-Foulkes estimate   =     -90.57350029 Ry
     estimated scf accuracy    <       0.62529796 Ry

     iteration #  5     ecut=    40.00 Ry     beta= 0.50
     Davidson diagonalization with overlap
     ethr =  1.95E-03,  avg # of iterations =  1.0

     total cpu time spent up to now is       16.1 secs

     total energy              =     -90.49232141 Ry
     Harris-Foulkes estimate   =     -90.54788061 Ry
     estimated scf accuracy    <       0.53712191 Ry

     iteration #  6     ecut=    40.00 Ry     beta= 0.50
     Davidson diagonalization with overlap
     ethr =  1.68E-03,  avg # of iterations =  1.0

     total cpu time spent up to now is       16.6 secs

     total energy              =     -90.51706649 Ry
     Harris-Foulkes estimate   =     -90.52033170 Ry
     estimated scf accuracy    <       0.01727009 Ry

     iteration #  7     ecut=    40.00 Ry     beta= 0.50
     Davidson diagonalization with overlap
     ethr =  5.40E-05,  avg # of iterations =  3.6

     total cpu time spent up to now is       17.5 secs

     total energy              =     -90.52118615 Ry
     Harris-Foulkes estimate   =     -90.52487184 Ry
     estimated scf accuracy    <       0.12257112 Ry

     iteration #  8     ecut=    40.00 Ry     beta= 0.50
     Davidson diagonalization with overlap
     ethr =  5.40E-05,  avg # of iterations =  1.0

     total cpu time spent up to now is       18.0 secs

     total energy              =     -90.51323258 Ry
     Harris-Foulkes estimate   =     -90.52159395 Ry
     estimated scf accuracy    <       0.07994266 Ry

     iteration #  9     ecut=    40.00 Ry     beta= 0.50
     Davidson diagonalization with overlap
     ethr =  5.40E-05,  avg # of iterations =  3.4

     total cpu time spent up to now is       18.9 secs

     total energy              =     -90.51670996 Ry
     Harris-Foulkes estimate   =     -90.51686217 Ry
     estimated scf accuracy    <       0.00125799 Ry

     iteration # 10     ecut=    40.00 Ry     beta= 0.50
     Davidson diagonalization with overlap
     ethr =  3.93E-06,  avg # of iterations =  3.6

     total cpu time spent up to now is       19.8 secs

     total energy              =     -90.51668733 Ry
     Harris-Foulkes estimate   =     -90.51681132 Ry
     estimated scf accuracy    <       0.00047350 Ry

     iteration # 11     ecut=    40.00 Ry     beta= 0.50
     Davidson diagonalization with overlap
     ethr =  1.48E-06,  avg # of iterations =  2.4

     total cpu time spent up to now is       20.5 secs

     total energy              =     -90.51673958 Ry
     Harris-Foulkes estimate   =     -90.51677228 Ry
     estimated scf accuracy    <       0.00029850 Ry

     iteration # 12     ecut=    40.00 Ry     beta= 0.50
     Davidson diagonalization with overlap
     ethr =  9.33E-07,  avg # of iterations =  1.0

     total cpu time spent up to now is       21.1 secs

     total energy              =     -90.51675689 Ry
     Harris-Foulkes estimate   =     -90.51675745 Ry
     estimated scf accuracy    <       0.00000288 Ry

     iteration # 13     ecut=    40.00 Ry     beta= 0.50
     Davidson diagonalization with overlap
     ethr =  9.01E-09,  avg # of iterations =  3.3

     total cpu time spent up to now is       22.1 secs

     total energy              =     -90.51675836 Ry
     Harris-Foulkes estimate   =     -90.51675859 Ry
     estimated scf accuracy    <       0.00000133 Ry

     iteration # 14     ecut=    40.00 Ry     beta= 0.50
     Davidson diagonalization with overlap
     ethr =  4.15E-09,  avg # of iterations =  1.1

     total cpu time spent up to now is       22.7 secs

     End of self-consistent calculation

          k = 0.0000 0.0000 0.0000 (  2311 PWs)   bands (ev):

   -14.7479 -12.3846 -10.6910  -8.9985  -8.0483  -5.2625  -4.0439  -1.3620
    -0.4462  -0.2351   0.2502   0.8885   2.0790   2.3843   4.6050   5.2416
     5.6182   7.6229   8.8054  10.8715

          k = 0.0001-0.0002 0.7754 (  2290 PWs)   bands (ev):

   -13.6801 -11.4318  -9.8450  -8.2154  -7.4264  -4.8206  -4.5746  -3.4769
    -2.6974  -1.2661  -0.6094   0.5281   1.2105   2.0341   2.7551   4.6766
     5.4010   7.3916   8.9533   9.0087

          k =-0.0003 0.0004-1.5508 (  2306 PWs)   bands (ev):

   -10.9860 -10.3360  -9.5623  -7.7879  -7.3185  -5.9095  -5.5035  -4.0282
    -3.5895  -3.2173  -2.0461  -0.8644   1.9361   2.2474   3.8225   4.6383
     5.2528   5.7832   7.3933   8.3840

          k =-0.0261 0.6215 0.0002 (  2316 PWs)   bands (ev):

   -14.1451 -12.3892 -12.0193  -9.9329  -6.1377  -4.6862  -3.3020  -1.7951
    -0.7530  -0.5141   0.2547   0.8561   0.9804   1.9876   4.1146   5.2104
     5.3886   7.9712  10.2584  11.4120

          k =-0.0260 0.6213 0.7756 (  2287 PWs)   bands (ev):

   -13.0899 -11.4350 -11.0202  -9.1799  -5.8031  -4.7077  -3.8163  -3.1154
    -2.7038  -2.3041  -0.9416   0.3439   1.1260   2.0979   2.8363   4.3993
     5.4719   7.6686   8.5478   9.8896

          k =-0.0264 0.6219-1.5506 (  2286 PWs)   bands (ev):

   -10.6271  -9.8387  -9.4385  -8.0035  -7.4015  -7.2878  -7.2329  -3.4885
    -2.5460  -2.3530  -1.3387  -0.6349   1.6314   2.4066   3.6663   4.8063
     5.3648   5.5623   6.9216   8.4035

          k =-0.0262 0.6217-0.7752 (  2287 PWs)   bands (ev):

   -13.0899 -11.4352 -11.0201  -9.1796  -5.8006  -4.7096  -3.8190  -3.1185
    -2.7033  -2.2991  -0.9416   0.3439   1.1266   2.0962   2.8363   4.4003
     5.4733   7.6686   8.5468   9.8889

          k =-0.5010 0.0281-0.0000 (  2298 PWs)   bands (ev):

   -14.7429 -12.4364 -10.5467  -9.1189  -8.0476  -5.3781  -3.7941  -1.3608
    -0.6097  -0.0571   0.2454   0.5548   2.0851   2.5220   4.7883   5.2401
     5.5054   7.6198   9.2895  10.6216

          k =-0.5008 0.0279 0.7754 (  2288 PWs)   bands (ev):

   -13.6752 -11.4818  -9.7127  -8.3257  -7.4255  -4.8601  -4.5685  -3.4165
    -2.6448  -1.2526  -0.6192   0.6986   0.8567   2.0008   2.8267   4.9621
     5.2418   7.2674   8.8775   9.3882

          k =-0.5012 0.0285-1.5508 (  2300 PWs)   bands (ev):

   -10.9790 -10.3347  -9.5951  -7.7137  -7.3311  -5.9843  -5.4851  -4.0293
    -3.6009  -3.1840  -2.0301  -0.8079   1.8305   1.9436   4.5307   4.7747
     5.0196   5.8075   6.7204   8.6722

          k =-0.5271 0.6496 0.0002 (  2302 PWs)   bands (ev):

   -14.1403 -12.4466 -11.9595  -9.9402  -6.1411  -4.6472  -3.3495  -1.6563
    -0.7981  -0.7514   0.2494   0.8275   0.9852   2.2014   4.5533   5.0810
     5.2093   7.5545  10.4499  11.5339

          k =-0.5269 0.6494 0.7756 (  2292 PWs)   bands (ev):

   -13.0851 -11.4874 -10.9632  -9.1912  -5.7987  -4.6893  -3.8473  -3.0923
    -2.7072  -2.3176  -0.8683   0.2505   1.0093   2.0152   3.0441   4.8173
     5.2037   7.5318   8.3206  10.1761

          k =-0.5273 0.6500-1.5506 (  2294 PWs)   bands (ev):

   -10.6250  -9.8374  -9.4433  -8.0054  -7.4546  -7.2348  -7.2263  -3.4878
    -2.5436  -2.3560  -1.3453  -0.6038   1.6384   2.1143   4.3342   4.6722
     5.4847   5.5579   6.0556   8.9184

          k =-0.5272 0.6498-0.7752 (  2294 PWs)   bands (ev):

   -13.0852 -11.4875 -10.9632  -9.1910  -5.7957  -4.6915  -3.8505  -3.0958
    -2.7062  -2.3127  -0.8683   0.2503   1.0096   2.0150   3.0440   4.8200
     5.2022   7.5317   8.3189  10.1733

     the Fermi energy is     5.1423 ev

!    total energy              =     -90.51675799 Ry
     Harris-Foulkes estimate   =     -90.51675845 Ry
     estimated scf accuracy    <       0.00000056 Ry

     The total energy is the sum of the following terms:

     one-electron contribution =     -47.88072428 Ry
     hartree contribution      =      37.71568665 Ry
     xc contribution           =     -27.46616374 Ry
     ewald contribution        =     -52.88478716 Ry
     smearing contrib. (-TS)   =      -0.00076946 Ry

     convergence has been achieved in  14 iterations

     Forces acting on atoms (cartesian axes, Ry/au):

     atom    1 type  1   force =     0.00967206    0.00198860   -0.00021403
     atom    2 type  1   force =    -0.01128148   -0.01873315    0.00011121
     atom    3 type  1   force =    -0.01571358    0.01837565   -0.00033346
     atom    4 type  1   force =    -0.01001660    0.00927938   -0.00000029
     atom    5 type  1   force =     0.00962660    0.02142146   -0.00029049
     atom    6 type  1   force =    -0.00100241   -0.01835410    0.00002865
     atom    7 type  1   force =     0.04613110   -0.01892445    0.00062710
     atom    8 type  1   force =    -0.02741568    0.00494660    0.00007130

     Total force =     0.074156     Total SCF correction =     0.001803


     Computing stress (Cartesian axis) and pressure

          total   stress  (Ry/bohr**3)                   (kbar)     P=       -6.27
  -0.00012529   0.00023165  -0.00000382          -18.43       34.08       -0.56
   0.00023165   0.00021540  -0.00000093           34.08       31.69       -0.14
  -0.00000382  -0.00000093  -0.00021792           -0.56       -0.14      -32.06


     number of scf cycles    =   2
     number of bfgs steps    =   1

     enthalpy old            =     -90.5059381865 Ry
     enthalpy new            =     -90.5167200966 Ry

     CASE: enthalpy_new < enthalpy_old

     new trust radius        =       0.0575922346 bohr
     new conv_thr            =       0.0000004613 Ry

     new unit-cell volume =    561.57491 a.u.^3 (    83.21682 Ang^3 )
     density =      1.91562 g/cm^3

CELL_PARAMETERS (bohr)
  14.739186729   0.736547004  -0.004419841
   0.502522116   8.020648228   0.001425960
  -0.000750501  -0.001685630   4.765259733

ATOMIC_POSITIONS (crystal)
C             0.6028014549        0.6999583351        0.5409535982
C             0.2228993417        0.3462764693        0.5434695056
C             0.2433634501        0.6696605472        0.5436938125
C             0.6758181194        0.5912525995        0.0410608112
C             0.1714974230        0.1863513630        0.0433378407
C             0.2348303779        0.8325126873        0.0437062108
C            -0.0211436439        0.2378827868        1.0420611798
C             0.8313214768        0.3958262118        0.0409990412



     Writing output data file ./pp.save/
     NEW-OLD atomic charge density approx. for the potential
     extrapolated charge   32.23428, renormalised to   32.00000

     total cpu time spent up to now is       22.7 secs

     Self-consistent Calculation

     iteration #  1     ecut=    40.00 Ry     beta= 0.50
     Davidson diagonalization with overlap
     ethr =  1.00E-06,  avg # of iterations =  8.6

     total cpu time spent up to now is       25.3 secs

     total energy              =     -90.47773009 Ry
     Harris-Foulkes estimate   =     -90.23189919 Ry
     estimated scf accuracy    <       0.05664780 Ry

     iteration #  2     ecut=    40.00 Ry     beta= 0.50
     Davidson diagonalization with overlap
     ethr =  1.77E-04,  avg # of iterations =  4.6

     total cpu time spent up to now is       26.7 secs

     total energy              =     -90.44986732 Ry
     Harris-Foulkes estimate   =     -90.70637933 Ry
     estimated scf accuracy    <       2.05134299 Ry

     iteration #  3     ecut=    40.00 Ry     beta= 0.50
     Davidson diagonalization with overlap
     ethr =  1.77E-04,  avg # of iterations =  3.5

     total cpu time spent up to now is       27.9 secs

     total energy              =     -90.52112694 Ry
     Harris-Foulkes estimate   =     -90.52799967 Ry
     estimated scf accuracy    <       0.11813196 Ry

     iteration #  4     ecut=    40.00 Ry     beta= 0.50
     Davidson diagonalization with overlap
     ethr =  1.77E-04,  avg # of iterations =  1.0

     total cpu time spent up to now is       28.5 secs

     total energy              =     -90.51886323 Ry
     Harris-Foulkes estimate   =     -90.52315183 Ry
     estimated scf accuracy    <       0.04770648 Ry

     iteration #  5     ecut=    40.00 Ry     beta= 0.50
     Davidson diagonalization with overlap
     ethr =  1.49E-04,  avg # of iterations =  1.0

     total cpu time spent up to now is       29.1 secs

     total energy              =     -90.52059538 Ry
     Harris-Foulkes estimate   =     -90.52082799 Ry
     estimated scf accuracy    <       0.00128186 Ry

     iteration #  6     ecut=    40.00 Ry     beta= 0.50
     Davidson diagonalization with overlap
     ethr =  4.01E-06,  avg # of iterations =  5.1

     total cpu time spent up to now is       30.6 secs

     total energy              =     -90.52064317 Ry
     Harris-Foulkes estimate   =     -90.52069970 Ry
     estimated scf accuracy    <       0.00027666 Ry

     iteration #  7     ecut=    40.00 Ry     beta= 0.50
     Davidson diagonalization with overlap
     ethr =  8.65E-07,  avg # of iterations =  2.2

     total cpu time spent up to now is       31.5 secs

     total energy              =     -90.52065153 Ry
     Harris-Foulkes estimate   =     -90.52069352 Ry
     estimated scf accuracy    <       0.00059692 Ry

     iteration #  8     ecut=    40.00 Ry     beta= 0.50
     Davidson diagonalization with overlap
     ethr =  8.65E-07,  avg # of iterations =  1.0

     total cpu time spent up to now is       32.2 secs

     total energy              =     -90.52064202 Ry
     Harris-Foulkes estimate   =     -90.52066706 Ry
     estimated scf accuracy    <       0.00015824 Ry

     iteration #  9     ecut=    40.00 Ry     beta= 0.50
     Davidson diagonalization with overlap
     ethr =  4.94E-07,  avg # of iterations =  1.0

     total cpu time spent up to now is       32.9 secs

     total energy              =     -90.52065626 Ry
     Harris-Foulkes estimate   =     -90.52065959 Ry
     estimated scf accuracy    <       0.00003036 Ry

     iteration # 10     ecut=    40.00 Ry     beta= 0.50
     Davidson diagonalization with overlap
     ethr =  9.49E-08,  avg # of iterations =  1.3

     total cpu time spent up to now is       33.6 secs

     total energy              =     -90.52065811 Ry
     Harris-Foulkes estimate   =     -90.52065809 Ry
     estimated scf accuracy    <       0.00000046 Ry

     iteration # 11     ecut=    40.00 Ry     beta= 0.50
     Davidson diagonalization with overlap
     ethr =  1.45E-09,  avg # of iterations =  3.7

     total cpu time spent up to now is       35.1 secs

     total energy              =     -90.52065804 Ry
     Harris-Foulkes estimate   =     -90.52065827 Ry
     estimated scf accuracy    <       0.00000206 Ry

     iteration # 12     ecut=    40.00 Ry     beta= 0.50
     Davidson diagonalization with overlap
     ethr =  1.45E-09,  avg # of iterations =  1.1

     total cpu time spent up to now is       35.8 secs

     End of self-consistent calculation

          k = 0.0000 0.0000 0.0000 (  2311 PWs)   bands (ev):

   -14.7574 -12.4997 -10.7873  -9.0647  -7.9946  -5.3927  -4.1140  -1.4170
    -0.5476  -0.2857   0.1569   0.8470   1.8166   2.4426   4.5464   5.2430
     5.5090   7.4550   8.8560  10.7454

          k = 0.0002-0.0002 0.7749 (  2290 PWs)   bands (ev):

   -13.6929 -11.5451  -9.9343  -8.2799  -7.3836  -4.9654  -4.6243  -3.5632
    -2.7769  -1.4746  -0.5747   0.4619   1.1233   2.0297   2.7571   4.6061
     5.3324   7.1918   8.7670   9.0087

          k =-0.0005 0.0003-1.5498 (  2306 PWs)   bands (ev):

   -11.0600 -10.2938  -9.6426  -7.8584  -7.4045  -6.0731  -5.6953  -3.9528
    -3.6390  -3.3164  -2.1009  -0.8793   1.8536   2.2894   3.7125   4.5242
     5.2514   5.6966   7.2317   8.1695

          k =-0.0308 0.6158 0.0002 (  2316 PWs)   bands (ev):

   -14.1796 -12.4921 -12.0899  -9.9003  -6.2492  -4.7721  -3.3844  -1.8307
    -0.8417  -0.5575   0.1598   0.7898   0.8102   1.9893   4.0588   5.2182
     5.3682   7.7396  10.1893  11.2276

          k =-0.0305 0.6156 0.7751 (  2287 PWs)   bands (ev):

   -13.1284 -11.5365 -11.0932  -9.1470  -5.8976  -4.8063  -3.9012  -3.1897
    -2.7826  -2.3823  -1.0196   0.2823   1.0788   2.0776   2.8296   4.3200
     5.4522   7.4338   8.3593   9.7990

          k =-0.0313 0.6161-1.5496 (  2286 PWs)   bands (ev):

   -10.7304  -9.7974  -9.5258  -8.0943  -7.4771  -7.3761  -7.2495  -3.6126
    -2.6490  -2.3839  -1.4119  -0.6543   1.5769   2.4346   3.5444   4.6917
     5.3398   5.4971   6.7843   8.2357

          k =-0.0310 0.6159-0.7747 (  2287 PWs)   bands (ev):

   -13.1288 -11.5367 -11.0925  -9.1467  -5.8959  -4.8070  -3.9029  -3.1941
    -2.7828  -2.3804  -1.0177   0.2832   1.0793   2.0765   2.8296   4.3211
     5.4532   7.4340   8.3587   9.7986

          k =-0.5026 0.0315-0.0001 (  2298 PWs)   bands (ev):

   -14.7517 -12.5530 -10.6432  -9.1837  -7.9939  -5.5058  -3.8711  -1.4156
    -0.6958  -0.1094   0.1515   0.5239   1.8229   2.5570   4.7114   5.2420
     5.3781   7.5389   9.2962  10.5658

          k =-0.5024 0.0313 0.7748 (  2288 PWs)   bands (ev):

   -13.6873 -11.5966  -9.8002  -8.3924  -7.3813  -5.0033  -4.6177  -3.5116
    -2.7209  -1.4603  -0.5837   0.6133   0.8179   1.9816   2.8103   4.8942
     5.1543   7.1090   8.7178   9.3423

          k =-0.5031 0.0318-1.5499 (  2300 PWs)   bands (ev):

   -11.0525 -10.2923  -9.6776  -7.7771  -7.4182  -6.1526  -5.6766  -3.9540
    -3.6599  -3.2741  -2.0852  -0.8190   1.8346   1.8596   4.4655   4.6890
     4.9846   5.7203   6.5574   8.4510

          k =-0.5334 0.6473 0.0001 (  2302 PWs)   bands (ev):

   -14.1746 -12.5484 -12.0299  -9.9125  -6.2358  -4.7529  -3.4268  -1.6772
    -0.8688  -0.8400   0.1538   0.7782   0.8156   2.2073   4.4992   5.0450
     5.2168   7.3654  10.3403  11.2316

          k =-0.5332 0.6471 0.7751 (  2292 PWs)   bands (ev):

   -13.1234 -11.5881 -11.0359  -9.1626  -5.8831  -4.7910  -3.9382  -3.1682
    -2.7843  -2.3957  -0.9412   0.1797   0.9624   1.9963   3.0435   4.7658
     5.1451   7.3075   8.1589  10.0694

          k =-0.5339 0.6476-1.5497 (  2294 PWs)   bands (ev):

   -10.7285  -9.7958  -9.5302  -8.0942  -7.5372  -7.3160  -7.2467  -3.6015
    -2.6592  -2.3886  -1.4149  -0.6238   1.5847   2.1239   4.2493   4.5498
     5.4708   5.4803   5.9118   8.7482

          k =-0.5337 0.6474-0.7748 (  2294 PWs)   bands (ev):

   -13.1238 -11.5880 -11.0355  -9.1623  -5.8806  -4.7920  -3.9409  -3.1730
    -2.7834  -2.3940  -0.9391   0.1798   0.9633   1.9965   3.0438   4.7689
     5.1427   7.3075   8.1581  10.0665

     the Fermi energy is     5.1068 ev

!    total energy              =     -90.52065814 Ry
     Harris-Foulkes estimate   =     -90.52065815 Ry
     estimated scf accuracy    <       0.00000001 Ry

     The total energy is the sum of the following terms:

     one-electron contribution =     -48.34722872 Ry
     hartree contribution      =      37.84988234 Ry
     xc contribution           =     -27.42606686 Ry
     ewald contribution        =     -52.59632774 Ry
     smearing contrib. (-TS)   =      -0.00091716 Ry

     convergence has been achieved in  12 iterations

     Forces acting on atoms (cartesian axes, Ry/au):

     atom    1 type  1   force =     0.00715194    0.00477995   -0.00021194
     atom    2 type  1   force =     0.00013358    0.01492363   -0.00003482
     atom    3 type  1   force =    -0.02056742   -0.02003208   -0.00008159
     atom    4 type  1   force =    -0.02272031    0.01515058   -0.00006734
     atom    5 type  1   force =     0.02516739   -0.00075028    0.00000498
     atom    6 type  1   force =    -0.00698149    0.00545325   -0.00014376
     atom    7 type  1   force =    -0.01803789    0.00915964    0.00033347
     atom    8 type  1   force =     0.03585422   -0.02868469    0.00020100

     Total force =     0.071394     Total SCF correction =     0.000214


     Computing stress (Cartesian axis) and pressure

          total   stress  (Ry/bohr**3)                   (kbar)     P=      -23.67
  -0.00014335   0.00025231  -0.00000327          -21.09       37.12       -0.48
   0.00025231  -0.00006732   0.00000015           37.12       -9.90        0.02
  -0.00000327   0.00000015  -0.00027212           -0.48        0.02      -40.03


     number of scf cycles    =   3
     number of bfgs steps    =   2

     enthalpy old            =     -90.5167200966 Ry
     enthalpy new            =     -90.5206199655 Ry

     CASE: enthalpy_new < enthalpy_old

     new trust radius        =       0.0990153006 bohr
     new conv_thr            =       0.0000003585 Ry

     new unit-cell volume =    559.70036 a.u.^3 (    82.93904 Ang^3 )
     density =      1.92204 g/cm^3

CELL_PARAMETERS (bohr)
  14.630106301   1.003317615  -0.008554793
   0.635644639   8.120587606   0.000792197
  -0.002036663  -0.001979906   4.736508672

ATOMIC_POSITIONS (crystal)
C             0.6030764697        0.7030610721        0.5408319422
C             0.2226741120        0.3472378945        0.5434858820
C             0.2400707378        0.6688835929        0.5435809910
C             0.6742176494        0.5936525970        0.0410421936
C             0.1741313612        0.1893205017        0.0432316906
C             0.2341329706        0.8302026436        0.0436486898
C            -0.0191260674        0.2358949107        1.0423871959
C             0.8322107667        0.3914677874        0.0410734149



     Writing output data file ./pp.save/
     NEW-OLD atomic charge density approx. for the potential
     extrapolated charge   31.89283, renormalised to   32.00000

     total cpu time spent up to now is       35.9 secs

     Self-consistent Calculation

     iteration #  1     ecut=    40.00 Ry     beta= 0.50
     Davidson diagonalization with overlap
     ethr =  1.00E-06,  avg # of iterations =  7.4

     total cpu time spent up to now is       39.2 secs

     total energy              =     -90.49562600 Ry
     Harris-Foulkes estimate   =     -90.66655951 Ry
     estimated scf accuracy    <       0.04623734 Ry

     iteration #  2     ecut=    40.00 Ry     beta= 0.50
     Davidson diagonalization with overlap
     ethr =  1.44E-04,  avg # of iterations =  4.4

     total cpu time spent up to now is       41.1 secs

     total energy              =     -90.47595913 Ry
     Harris-Foulkes estimate   =     -90.64480800 Ry
     estimated scf accuracy    <       1.19840694 Ry

     iteration #  3     ecut=    40.00 Ry     beta= 0.50
     Davidson diagonalization with overlap
     ethr =  1.44E-04,  avg # of iterations =  3.7

     total cpu time spent up to now is       42.8 secs

     total energy              =     -90.52504643 Ry
     Harris-Foulkes estimate   =     -90.53107394 Ry
     estimated scf accuracy    <       0.04332807 Ry

     iteration #  4     ecut=    40.00 Ry     beta= 0.50
     Davidson diagonalization with overlap
     ethr =  1.35E-04,  avg # of iterations =  1.0

     total cpu time spent up to now is       43.7 secs

     total energy              =     -90.52610681 Ry
     Harris-Foulkes estimate   =     -90.52839818 Ry
     estimated scf accuracy    <       0.02716128 Ry

     iteration #  5     ecut=    40.00 Ry     beta= 0.50
     Davidson diagonalization with overlap
     ethr =  8.49E-05,  avg # of iterations =  1.0

     total cpu time spent up to now is       44.6 secs

     total energy              =     -90.52665351 Ry
     Harris-Foulkes estimate   =     -90.52705113 Ry
     estimated scf accuracy    <       0.00348042 Ry

     iteration #  6     ecut=    40.00 Ry     beta= 0.50
     Davidson diagonalization with overlap
     ethr =  1.09E-05,  avg # of iterations =  3.1

     total cpu time spent up to now is       46.1 secs

     total energy              =     -90.52682333 Ry
     Harris-Foulkes estimate   =     -90.52685800 Ry
     estimated scf accuracy    <       0.00019750 Ry

     iteration #  7     ecut=    40.00 Ry     beta= 0.50
     Davidson diagonalization with overlap
     ethr =  6.17E-07,  avg # of iterations =  3.7

     total cpu time spent up to now is       47.9 secs

     total energy              =     -90.52685861 Ry
     Harris-Foulkes estimate   =     -90.52686584 Ry
     estimated scf accuracy    <       0.00009275 Ry

     iteration #  8     ecut=    40.00 Ry     beta= 0.50
     Davidson diagonalization with overlap
     ethr =  2.90E-07,  avg # of iterations =  1.2

     total cpu time spent up to now is       48.9 secs

     total energy              =     -90.52685698 Ry
     Harris-Foulkes estimate   =     -90.52686312 Ry
     estimated scf accuracy    <       0.00005024 Ry

     iteration #  9     ecut=    40.00 Ry     beta= 0.50
     Davidson diagonalization with overlap
     ethr =  1.57E-07,  avg # of iterations =  1.0

     total cpu time spent up to now is       49.9 secs

     total energy              =     -90.52686075 Ry
     Harris-Foulkes estimate   =     -90.52686099 Ry
     estimated scf accuracy    <       0.00000205 Ry

     iteration # 10     ecut=    40.00 Ry     beta= 0.50
     Davidson diagonalization with overlap
     ethr =  6.39E-09,  avg # of iterations =  2.7

     total cpu time spent up to now is       51.4 secs

     End of self-consistent calculation

          k = 0.0000 0.0000 0.0000 (  2311 PWs)   bands (ev):

   -14.7458 -12.5856 -10.8922  -9.1816  -8.0125  -5.3106  -4.0980  -1.2960
    -0.6275  -0.2770  -0.0247   0.8382   1.7788   2.4476   4.5553   5.2566
     5.4204   7.5326   9.1023  10.7315

          k = 0.0005-0.0001 0.7796 (  2290 PWs)   bands (ev):

   -13.6704 -11.6150 -10.0261  -8.3806  -7.3644  -4.8790  -4.5789  -3.5234
    -2.9350  -1.5420  -0.5460   0.4730   1.0947   2.0136   2.7263   4.6393
     5.3433   7.3185   8.9512   9.2059

          k =-0.0009 0.0002-1.5592 (  2306 PWs)   bands (ev):

   -11.0507 -10.1935  -9.6238  -7.9106  -7.5541  -6.1567  -5.8154  -3.9055
    -3.7544  -3.2716  -1.9591  -0.9230   1.8327   2.3860   3.7904   4.4782
     5.4276   5.6493   7.2965   8.1866

          k =-0.0418 0.6096 0.0002 (  2316 PWs)   bands (ev):

   -14.1920 -12.5781 -12.1494  -9.9586  -6.2254  -4.7553  -3.4127  -1.8839
    -0.7508  -0.5687  -0.0215   0.6948   0.8386   1.9319   4.0671   5.2381
     5.4991   7.8241  10.3364  11.4389

          k =-0.0413 0.6095 0.7799 (  2287 PWs)   bands (ev):

   -13.1303 -11.6060 -11.1401  -9.1992  -5.8563  -4.7387  -3.8507  -3.2113
    -2.9215  -2.3949  -1.0697   0.2597   1.0672   2.0365   2.7880   4.3410
     5.5774   7.5413   8.5000   9.9219

          k =-0.0427 0.6098-1.5590 (  2286 PWs)   bands (ev):

   -10.7486  -9.7087  -9.5068  -8.1210  -7.5372  -7.4822  -7.3045  -3.5790
    -2.6208  -2.4181  -1.4163  -0.7126   1.5958   2.5041   3.5964   4.6575
     5.4261   5.4799   6.8219   8.3899

          k =-0.0423 0.6097-0.7794 (  2287 PWs)   bands (ev):

   -13.1312 -11.6064 -11.1381  -9.1987  -5.8563  -4.7388  -3.8502  -3.2152
    -2.9229  -2.3970  -1.0660   0.2616   1.0679   2.0363   2.7877   4.3420
     5.5772   7.5421   8.4999   9.9224

          k =-0.5075 0.0397-0.0002 (  2298 PWs)   bands (ev):

   -14.7388 -12.6446 -10.7430  -9.2956  -8.0099  -5.4619  -3.8219  -1.2940
    -0.7864  -0.0401  -0.0304   0.5078   1.7846   2.5067   4.7049   5.2347
     5.2558   7.7600   9.4927  10.6866

          k =-0.5071 0.0396 0.7794 (  2288 PWs)   bands (ev):

   -13.6634 -11.6723  -9.8869  -8.4889  -7.3603  -4.9396  -4.5701  -3.4887
    -2.8470  -1.5284  -0.5552   0.5441   0.9209   1.9552   2.7481   4.9128
     5.1124   7.2787   8.9637   9.5251

          k =-0.5085 0.0400-1.5594 (  2300 PWs)   bands (ev):

   -11.0420 -10.1916  -9.6649  -7.8201  -7.5684  -6.2367  -5.7970  -3.9077
    -3.7718  -3.2448  -1.9344  -0.8602   1.8316   1.9333   4.4909   4.6983
     5.1025   5.6820   6.7007   8.4349

          k =-0.5493 0.6493 0.0000 (  2302 PWs)   bands (ev):

   -14.1865 -12.6385 -12.0808  -9.9823  -6.1806  -4.7645  -3.4517  -1.7150
    -0.9205  -0.7485  -0.0275   0.6859   0.8435   2.1839   4.4989   5.1312
     5.2361   7.5423  10.4303  11.4985

          k =-0.5489 0.6492 0.7797 (  2292 PWs)   bands (ev):

   -13.1248 -11.6617 -11.0743  -9.2251  -5.8243  -4.7240  -3.9015  -3.1889
    -2.9278  -2.4020  -0.9848   0.1544   0.9157   1.9687   3.0364   4.7619
     5.2466   7.4086   8.3832  10.1678

          k =-0.5503 0.6495-1.5592 (  2294 PWs)   bands (ev):

   -10.7471  -9.7067  -9.5105  -8.1161  -7.6208  -7.3982  -7.3102  -3.5474
    -2.6506  -2.4273  -1.4170  -0.6856   1.6068   2.2252   4.2537   4.4853
     5.4644   5.5961   5.9939   8.8691

          k =-0.5498 0.6494-0.7796 (  2294 PWs)   bands (ev):

   -13.1258 -11.6612 -11.0731  -9.2248  -5.8233  -4.7239  -3.9029  -3.1939
    -2.9272  -2.4044  -0.9806   0.1547   0.9172   1.9693   3.0371   4.7654
     5.2428   7.4084   8.3834  10.1651

     the Fermi energy is     5.1559 ev

!    total energy              =     -90.52686082 Ry
     Harris-Foulkes estimate   =     -90.52686100 Ry
     estimated scf accuracy    <       0.00000024 Ry

     The total energy is the sum of the following terms:

     one-electron contribution =     -49.36564616 Ry
     hartree contribution      =      38.38126680 Ry
     xc contribution           =     -27.49162739 Ry
     ewald contribution        =     -52.04926780 Ry
     smearing contrib. (-TS)   =      -0.00158626 Ry

     convergence has been achieved in  10 iterations

     Forces acting on atoms (cartesian axes, Ry/au):

     atom    1 type  1   force =    -0.01331821    0.01714568   -0.00024331
     atom    2 type  1   force =     0.00832148    0.02384067   -0.00013437
     atom    3 type  1   force =    -0.01950352   -0.03465140    0.00022508
     atom    4 type  1   force =    -0.00636583    0.00331776   -0.00013800
     atom    5 type  1   force =     0.02974487   -0.02182279    0.00031096
     atom    6 type  1   force =    -0.00394460    0.02379791   -0.00024244
     atom    7 type  1   force =     0.01876931   -0.00840175    0.00002260
     atom    8 type  1   force =    -0.01370349   -0.00322608    0.00019948

     Total force =     0.072842     Total SCF correction =     0.000952


     Computing stress (Cartesian axis) and pressure

          total   stress  (Ry/bohr**3)                   (kbar)     P=        1.49
   0.00014636   0.00009172  -0.00000151           21.53       13.49       -0.22
   0.00009172  -0.00020201   0.00000157           13.49      -29.72        0.23
  -0.00000151   0.00000157   0.00008608           -0.22        0.23       12.66


     number of scf cycles    =   4
     number of bfgs steps    =   3

     enthalpy old            =     -90.5206199655 Ry
     enthalpy new            =     -90.5268227684 Ry

     CASE: enthalpy_new < enthalpy_old

     new trust radius        =       0.1298532267 bohr
     new conv_thr            =       0.0000003465 Ry

     new unit-cell volume =    559.33450 a.u.^3 (    82.88482 Ang^3 )
     density =      1.92329 g/cm^3

CELL_PARAMETERS (bohr)
  14.569396956   1.389439353  -0.014645019
   0.829156468   8.214265929   0.000317406
  -0.003922119  -0.002145481   4.719136858

ATOMIC_POSITIONS (crystal)
C             0.6021635066        0.7100859470        0.5406074749
C             0.2229852134        0.3517458777        0.5434712315
C             0.2342763595        0.6629668193        0.5434963018
C             0.6719373851        0.5969329599        0.0409831864
C             0.1798429651        0.1899160734        0.0431674304
C             0.2329620282        0.8306827546        0.0435102405
C            -0.0139323022        0.2309937214        1.0428261758
C             0.8311528444        0.3863968467        0.0412199588



     Writing output data file ./pp.save/
     NEW-OLD atomic charge density approx. for the potential
     extrapolated charge   31.97907, renormalised to   32.00000

     total cpu time spent up to now is       51.5 secs

     Self-consistent Calculation

     iteration #  1     ecut=    40.00 Ry     beta= 0.50
     Davidson diagonalization with overlap
     ethr =  1.00E-06,  avg # of iterations =  8.6

     total cpu time spent up to now is       56.6 secs

     total energy              =     -90.52444824 Ry
     Harris-Foulkes estimate   =     -90.56281093 Ry
     estimated scf accuracy    <       0.01795363 Ry

     iteration #  2     ecut=    40.00 Ry     beta= 0.50
     Davidson diagonalization with overlap
     ethr =  5.61E-05,  avg # of iterations =  4.1

     total cpu time spent up to now is       59.0 secs

     total energy              =     -90.50914947 Ry
     Harris-Foulkes estimate   =     -90.55458981 Ry
     estimated scf accuracy    <       0.29560567 Ry

     iteration #  3     ecut=    40.00 Ry     beta= 0.50
     Davidson diagonalization with overlap
     ethr =  5.61E-05,  avg # of iterations =  3.8

     total cpu time spent up to now is       61.1 secs

     total energy              =     -90.53096631 Ry
     Harris-Foulkes estimate   =     -90.53400943 Ry
     estimated scf accuracy    <       0.01497179 Ry

     iteration #  4     ecut=    40.00 Ry     beta= 0.50
     Davidson diagonalization with overlap
     ethr =  4.68E-05,  avg # of iterations =  1.4

     total cpu time spent up to now is       62.4 secs

     total energy              =     -90.53214348 Ry
     Harris-Foulkes estimate   =     -90.53334333 Ry
     estimated scf accuracy    <       0.00627061 Ry

     iteration #  5     ecut=    40.00 Ry     beta= 0.50
     Davidson diagonalization with overlap
     ethr =  1.96E-05,  avg # of iterations =  1.0

     total cpu time spent up to now is       63.6 secs

     total energy              =     -90.53275989 Ry
     Harris-Foulkes estimate   =     -90.53284102 Ry
     estimated scf accuracy    <       0.00042887 Ry

     iteration #  6     ecut=    40.00 Ry     beta= 0.50
     Davidson diagonalization with overlap
     ethr =  1.34E-06,  avg # of iterations =  2.9

     total cpu time spent up to now is       65.4 secs

     total energy              =     -90.53281469 Ry
     Harris-Foulkes estimate   =     -90.53281679 Ry
     estimated scf accuracy    <       0.00003856 Ry

     iteration #  7     ecut=    40.00 Ry     beta= 0.50
     Davidson diagonalization with overlap
     ethr =  1.21E-07,  avg # of iterations =  2.3

     total cpu time spent up to now is       67.3 secs

     total energy              =     -90.53282033 Ry
     Harris-Foulkes estimate   =     -90.53282099 Ry
     estimated scf accuracy    <       0.00000404 Ry

     iteration #  8     ecut=    40.00 Ry     beta= 0.50
     Davidson diagonalization with overlap
     ethr =  1.26E-08,  avg # of iterations =  2.3

     total cpu time spent up to now is       69.1 secs

     total energy              =     -90.53282098 Ry
     Harris-Foulkes estimate   =     -90.53282120 Ry
     estimated scf accuracy    <       0.00000104 Ry

     iteration #  9     ecut=    40.00 Ry     beta= 0.50
     Davidson diagonalization with overlap
     ethr =  3.23E-09,  avg # of iterations =  2.3

     total cpu time spent up to now is       71.0 secs

     End of self-consistent calculation

          k = 0.0000 0.0000 0.0000 (  2311 PWs)   bands (ev):

   -14.7576 -12.7049 -10.9001  -9.1903  -8.3137  -5.2891  -4.0840  -1.0292
    -0.7282  -0.2272  -0.1912   0.7297   2.1154   2.3633   4.4209   5.2498
     5.3278   7.4347   9.3397  10.7115

          k = 0.0008-0.0001 0.7825 (  2290 PWs)   bands (ev):

   -13.6766 -11.7222 -10.0322  -8.3692  -7.6347  -4.8852  -4.4185  -3.4801
    -3.0686  -1.3425  -0.7743   0.4539   1.0951   2.0478   2.7113   4.5961
     5.3447   7.2412   8.8730   9.4055

          k =-0.0016 0.0002-1.5650 (  2306 PWs)   bands (ev):

   -11.1002 -10.1458  -9.6586  -7.8929  -7.6921  -6.0601  -5.7226  -4.0975
    -4.0549  -3.3158  -1.8061  -0.9392   1.7968   2.3680   3.8300   4.3668
     5.5965   5.7244   7.2744   8.2585

          k =-0.0577 0.6052 0.0002 (  2316 PWs)   bands (ev):

   -14.2254 -12.6920 -12.2170  -9.9328  -6.2966  -4.8452  -3.4752  -2.0160
    -0.6550  -0.4711  -0.1820   0.4770   1.1092   1.9385   4.0204   5.3149
     5.6807   7.6670  10.4887  11.3933

          k =-0.0569 0.6051 0.7827 (  2287 PWs)   bands (ev):

   -13.1592 -11.7075 -11.2011  -9.1670  -5.9281  -4.7629  -3.7335  -3.2583
    -3.0360  -2.3432  -1.1226   0.1512   1.0216   2.0333   2.8202   4.3176
     5.7476   7.4039   8.4440  10.0167

          k =-0.0593 0.6054-1.5648 (  2286 PWs)   bands (ev):

   -10.8215  -9.7046  -9.5622  -8.0708  -7.6752  -7.3812  -7.2893  -3.6078
    -2.6326  -2.5483  -1.4365  -0.7577   1.5830   2.4384   3.5977   4.5476
     5.4475   5.6111   6.8257   8.5749

          k =-0.0585 0.6053-0.7823 (  2287 PWs)   bands (ev):

   -13.1605 -11.7082 -11.1977  -9.1665  -5.9321  -4.7641  -3.7292  -3.2583
    -3.0377  -2.3469  -1.1203   0.1531   1.0235   2.0335   2.8185   4.3186
     5.7445   7.4062   8.4450  10.0191

          k =-0.5118 0.0517-0.0004 (  2298 PWs)   bands (ev):

   -14.7492 -12.7642 -10.7554  -9.2965  -8.3017  -5.4979  -3.7637  -1.0256
    -0.9035  -0.1983   0.1520   0.3738   2.1212   2.3255   4.5869   4.8959
     5.3267   7.8955   9.6189  10.9073

          k =-0.5110 0.0516 0.7821 (  2288 PWs)   bands (ev):

   -13.6682 -11.7797  -9.8980  -8.4705  -7.6227  -4.9777  -4.4081  -3.4876
    -2.9164  -1.3297  -0.7837   0.4139   1.1181   1.9736   2.6972   4.8537
     4.9981   7.2417   9.0184   9.6999

          k =-0.5134 0.0519-1.5654 (  2300 PWs)   bands (ev):

   -11.0905 -10.1436  -9.7030  -7.7978  -7.7053  -6.1408  -5.7055  -4.1030
    -4.0629  -3.3141  -1.7653  -0.8623   1.7789   1.9300   4.4127   4.6480
     5.3319   5.6406   6.8503   8.4306

          k =-0.5696 0.6569-0.0002 (  2302 PWs)   bands (ev):

   -14.2201 -12.7509 -12.1437  -9.9734  -6.2101  -4.8830  -3.5205  -1.8504
    -0.9750  -0.4643  -0.1920   0.3906   1.1140   2.2638   4.4600   5.2023
     5.3113   7.5642  10.4822  11.4049

          k =-0.5688 0.6568 0.7823 (  2292 PWs)   bands (ev):

   -13.1540 -11.7618 -11.1308  -9.2075  -5.8733  -4.7529  -3.7973  -3.2340
    -3.0467  -2.3416  -1.0431   0.1070   0.7716   1.9822   3.1102   4.7195
     5.3742   7.2943   8.4298  10.1945

          k =-0.5711 0.6571-1.5652 (  2294 PWs)   bands (ev):

   -10.8213  -9.7025  -9.5619  -8.0653  -7.7170  -7.3374  -7.3032  -3.5524
    -2.6804  -2.5641  -1.4398  -0.7346   1.6028   2.2236   4.1400   4.3441
     5.4448   5.8264   6.0943   8.9901

          k =-0.5704 0.6570-0.7827 (  2294 PWs)   bands (ev):

   -13.1555 -11.7611 -11.1286  -9.2074  -5.8759  -4.7532  -3.7958  -3.2358
    -3.0459  -2.3459  -1.0400   0.1080   0.7725   1.9829   3.1113   4.7232
     5.3689   7.2933   8.4320  10.1915

     the Fermi energy is     5.1829 ev

!    total energy              =     -90.53282106 Ry
     Harris-Foulkes estimate   =     -90.53282119 Ry
     estimated scf accuracy    <       0.00000021 Ry

     The total energy is the sum of the following terms:

     one-electron contribution =     -50.34896797 Ry
     hartree contribution      =      38.85196512 Ry
     xc contribution           =     -27.51142518 Ry
     ewald contribution        =     -51.52358678 Ry
     smearing contrib. (-TS)   =      -0.00080626 Ry

     convergence has been achieved in   9 iterations

     Forces acting on atoms (cartesian axes, Ry/au):

     atom    1 type  1   force =    -0.03677035    0.02602965   -0.00018488
     atom    2 type  1   force =     0.00131393   -0.02938142    0.00006641
     atom    3 type  1   force =    -0.00632408    0.03588245    0.00004799
     atom    4 type  1   force =     0.00046470   -0.00030636   -0.00031889
     atom    5 type  1   force =     0.03223755   -0.01576667    0.00033777
     atom    6 type  1   force =     0.00405944   -0.00373943    0.00025992
     atom    7 type  1   force =    -0.01209767    0.00467610   -0.00053627
     atom    8 type  1   force =     0.01711648   -0.01739432    0.00032795

     Total force =     0.079406     Total SCF correction =     0.000996


     Computing stress (Cartesian axis) and pressure

          total   stress  (Ry/bohr**3)                   (kbar)     P=        6.24
   0.00020572   0.00002918   0.00000041           30.26        4.29        0.06
   0.00002918  -0.00021248   0.00000416            4.29      -31.26        0.61
   0.00000041   0.00000416   0.00013408            0.06        0.61       19.72


     number of scf cycles    =   5
     number of bfgs steps    =   4

     enthalpy old            =     -90.5268227684 Ry
     enthalpy new            =     -90.5327830373 Ry

     CASE: enthalpy_new < enthalpy_old

     new trust radius        =       0.0758625557 bohr
     new conv_thr            =       0.0000003677 Ry

     new unit-cell volume =    560.40153 a.u.^3 (    83.04294 Ang^3 )
     density =      1.91963 g/cm^3

CELL_PARAMETERS (bohr)
  14.611928338   1.618690448  -0.017892097
   0.942876841   8.226137800   0.000857258
  -0.004905005  -0.001741295   4.722218201

ATOMIC_POSITIONS (crystal)
C             0.5993557611        0.7172024762        0.5404456045
C             0.2231544744        0.3501319186        0.5434825162
C             0.2306252419        0.6646007953        0.5434521410
C             0.6706313375        0.5988321226        0.0408831427
C             0.1851232658        0.1884541843        0.0431961847
C             0.2325888190        0.8303260457        0.0434903789
C            -0.0115556582        0.2286452765        1.0429623952
C             0.8314647584        0.3815281809        0.0413696367



     Writing output data file ./pp.save/
     NEW-OLD atomic charge density approx. for the potential
     extrapolated charge   32.06093, renormalised to   32.00000

     total cpu time spent up to now is       71.0 secs

     Self-consistent Calculation

     iteration #  1     ecut=    40.00 Ry     beta= 0.50
     Davidson diagonalization with overlap
     ethr =  1.00E-06,  avg # of iterations =  7.9

     total cpu time spent up to now is       76.8 secs

     total energy              =     -90.53497642 Ry
     Harris-Foulkes estimate   =     -90.45808210 Ry
     estimated scf accuracy    <       0.00479278 Ry

     iteration #  2     ecut=    40.00 Ry     beta= 0.50
     Davidson diagonalization with overlap
     ethr =  1.50E-05,  avg # of iterations =  4.7

     total cpu time spent up to now is       80.0 secs

     total energy              =     -90.52877624 Ry
     Harris-Foulkes estimate   =     -90.54726153 Ry
     estimated scf accuracy    <       0.16693068 Ry

     iteration #  3     ecut=    40.00 Ry     beta= 0.50
     Davidson diagonalization with overlap
     ethr =  1.50E-05,  avg # of iterations =  3.4

     total cpu time spent up to now is       82.6 secs

     total energy              =     -90.53740514 Ry
     Harris-Foulkes estimate   =     -90.53772874 Ry
     estimated scf accuracy    <       0.00097110 Ry

     iteration #  4     ecut=    40.00 Ry     beta= 0.50
     Davidson diagonalization with overlap
     ethr =  3.03E-06,  avg # of iterations =  2.9

     total cpu time spent up to now is       84.9 secs

     total energy              =     -90.53737819 Ry
     Harris-Foulkes estimate   =     -90.53792978 Ry
     estimated scf accuracy    <       0.00295972 Ry

     iteration #  5     ecut=    40.00 Ry     beta= 0.50
     Davidson diagonalization with overlap
     ethr =  3.03E-06,  avg # of iterations =  2.1

     total cpu time spent up to now is       86.9 secs

     total energy              =     -90.53766230 Ry
     Harris-Foulkes estimate   =     -90.53766750 Ry
     estimated scf accuracy    <       0.00004812 Ry

     iteration #  6     ecut=    40.00 Ry     beta= 0.50
     Davidson diagonalization with overlap
     ethr =  1.50E-07,  avg # of iterations =  2.6

     total cpu time spent up to now is       89.4 secs

     total energy              =     -90.53767341 Ry
     Harris-Foulkes estimate   =     -90.53767656 Ry
     estimated scf accuracy    <       0.00002167 Ry

     iteration #  7     ecut=    40.00 Ry     beta= 0.50
     Davidson diagonalization with overlap
     ethr =  6.77E-08,  avg # of iterations =  1.1

     total cpu time spent up to now is       90.9 secs

     total energy              =     -90.53767535 Ry
     Harris-Foulkes estimate   =     -90.53767554 Ry
     estimated scf accuracy    <       0.00000341 Ry

     iteration #  8     ecut=    40.00 Ry     beta= 0.50
     Davidson diagonalization with overlap
     ethr =  1.06E-08,  avg # of iterations =  1.8

     total cpu time spent up to now is       92.8 secs

     End of self-consistent calculation

          k = 0.0000 0.0000 0.0000 (  2311 PWs)   bands (ev):

   -14.8145 -12.6273 -10.8469  -9.2661  -8.4278  -5.2387  -4.0934  -1.1387
    -0.6573  -0.1683  -0.0361   0.8260   2.0019   2.3321   4.3071   5.1101
     5.2704   7.4256   9.3202  10.7037

          k = 0.0010-0.0002 0.7820 (  2290 PWs)   bands (ev):

   -13.7358 -11.6479  -9.9799  -8.4319  -7.7531  -4.8289  -4.5116  -3.4373
    -2.9742  -1.4274  -0.7893   0.5174   1.1004   2.0150   2.7128   4.5502
     5.2703   7.2338   8.8808   9.3558

          k =-0.0020 0.0004-1.5640 (  2306 PWs)   bands (ev):

   -11.1654 -10.1765  -9.6336  -7.8488  -7.5923  -6.0712  -5.7909  -4.2369
    -4.1298  -3.2744  -1.7550  -0.9868   1.7893   2.3599   3.8630   4.3231
     5.6219   5.8828   7.2457   8.1461

          k =-0.0672 0.6062 0.0002 (  2316 PWs)   bands (ev):

   -14.2776 -12.6347 -12.2423  -9.9499  -6.2353  -4.8579  -3.4988  -2.0057
    -0.6238  -0.5666  -0.0319   0.3682   0.9783   1.9555   3.9513   5.2691
     5.7230   7.6649  10.4753  11.4378

          k =-0.0662 0.6060 0.7821 (  2287 PWs)   bands (ev):

   -13.2135 -11.6527 -11.2242  -9.1859  -5.9021  -4.7655  -3.7217  -3.3221
    -2.9695  -2.4007  -1.1249   0.1141   1.0083   1.9813   2.8386   4.2662
     5.7872   7.3790   8.4383   9.9675

          k =-0.0691 0.6066-1.5638 (  2286 PWs)   bands (ev):

   -10.8757  -9.7157  -9.5503  -8.0684  -7.5771  -7.4848  -7.3283  -3.5643
    -2.6183  -2.5190  -1.4726  -0.8124   1.5658   2.4163   3.6029   4.4812
     5.4746   5.7013   6.7557   8.5473

          k =-0.0681 0.6064-0.7818 (  2287 PWs)   bands (ev):

   -13.2146 -11.6535 -11.2210  -9.1855  -5.9067  -4.7667  -3.7164  -3.3218
    -2.9706  -2.4036  -1.1238   0.1153   1.0111   1.9812   2.8360   4.2673
     5.7824   7.3823   8.4397   9.9716

          k =-0.5119 0.0587-0.0005 (  2298 PWs)   bands (ev):

   -14.8070 -12.6867 -10.7014  -9.3626  -8.4138  -5.5009  -3.7294  -1.1362
    -0.8801  -0.0422   0.3126   0.4749   2.0073   2.2455   4.3999   4.7640
     5.2702   8.0000   9.4835  11.0315

          k =-0.5110 0.0585 0.7815 (  2288 PWs)   bands (ev):

   -13.7283 -11.7054  -9.8451  -8.5253  -7.7392  -4.9569  -4.5017  -3.4103
    -2.8272  -1.4172  -0.7978   0.4032   1.2656   1.9345   2.6669   4.7241
     4.9352   7.2471   9.0731   9.6357

          k =-0.5139 0.0591-1.5645 (  2300 PWs)   bands (ev):

   -11.1564 -10.1745  -9.6773  -7.7537  -7.6054  -6.1444  -5.7753  -4.2451
    -4.1362  -3.2952  -1.6967  -0.9001   1.7594   1.9232   4.4032   4.6410
     5.4534   5.6677   6.8967   8.2761

          k =-0.5791 0.6649-0.0004 (  2302 PWs)   bands (ev):

   -14.2741 -12.6943 -12.1648  -9.9960  -6.1314  -4.8994  -3.5557  -1.8523
    -0.9057  -0.5638  -0.0384   0.2325   0.9838   2.3102   4.4058   5.1849
     5.2651   7.6503  10.3873  11.4519

          k =-0.5781 0.6647 0.7816 (  2292 PWs)   bands (ev):

   -13.2102 -11.7066 -11.1512  -9.2306  -5.8432  -4.7473  -3.7912  -3.3129
    -2.9591  -2.4115  -1.0527   0.1391   0.6779   1.9403   3.1439   4.6534
     5.4031   7.2821   8.4798  10.0838

          k =-0.5810 0.6653-1.5643 (  2294 PWs)   bands (ev):

   -10.8765  -9.7140  -9.5467  -8.0641  -7.6543  -7.4048  -7.3457  -3.4952
    -2.6738  -2.5363  -1.4813  -0.7955   1.5930   2.2432   4.0944   4.2602
     5.4637   5.9417   6.0729   8.9306

          k =-0.5801 0.6651-0.7823 (  2294 PWs)   bands (ev):

   -13.2114 -11.7055 -11.1497  -9.2308  -5.8463  -4.7466  -3.7893  -3.3133
    -2.9588  -2.4157  -1.0508   0.1412   0.6768   1.9411   3.1454   4.6574
     5.3969   7.2802   8.4834  10.0811

     the Fermi energy is     5.1420 ev

!    total energy              =     -90.53767570 Ry
     Harris-Foulkes estimate   =     -90.53767570 Ry
     estimated scf accuracy    <       0.00000008 Ry

     The total energy is the sum of the following terms:

     one-electron contribution =     -50.55606943 Ry
     hartree contribution      =      38.92417704 Ry
     xc contribution           =     -27.48649140 Ry
     ewald contribution        =     -51.41891039 Ry
     smearing contrib. (-TS)   =      -0.00038151 Ry

     convergence has been achieved in   8 iterations

     Forces acting on atoms (cartesian axes, Ry/au):

     atom    1 type  1   force =    -0.03024537    0.01476496   -0.00027219
     atom    2 type  1   force =     0.01101014   -0.00909558    0.00015915
     atom    3 type  1   force =     0.00358957    0.01435371    0.00012936
     atom    4 type  1   force =     0.00164649    0.00119015   -0.00019820
     atom    5 type  1   force =     0.00179459   -0.00832766    0.00030700
     atom    6 type  1   force =     0.00112995   -0.01141479    0.00028633
     atom    7 type  1   force =     0.01081095    0.00150453   -0.00071301
     atom    8 type  1   force =     0.00026367   -0.00297533    0.00030157

     Total force =     0.043508     Total SCF correction =     0.000393


     Computing stress (Cartesian axis) and pressure

          total   stress  (Ry/bohr**3)                   (kbar)     P=       -5.27
   0.00012958  -0.00000887   0.00000187           19.06       -1.30        0.27
  -0.00000887  -0.00029658   0.00000302           -1.30      -43.63        0.44
   0.00000187   0.00000302   0.00005949            0.27        0.44        8.75


     number of scf cycles    =   6
     number of bfgs steps    =   5

     enthalpy old            =     -90.5327830373 Ry
     enthalpy new            =     -90.5376376008 Ry

     CASE: enthalpy_new < enthalpy_old

     new trust radius        =       0.0756919135 bohr
     new conv_thr            =       0.0000003025 Ry

     new unit-cell volume =    556.63837 a.u.^3 (    82.48529 Ang^3 )
     density =      1.93261 g/cm^3

CELL_PARAMETERS (bohr)
  14.707380662   1.727848960  -0.018277892
   0.993336765   8.125541789   0.002077462
  -0.004975989  -0.000941729   4.725726550

ATOMIC_POSITIONS (crystal)
C             0.5951703187        0.7231348524        0.5402827936
C             0.2243358222        0.3482297969        0.5435322608
C             0.2291915883        0.6672986251        0.5434809397
C             0.6698128962        0.6004557990        0.0407676471
C             0.1880361260        0.1856703512        0.0433261050
C             0.2324224652        0.8284422831        0.0435711219
C            -0.0094579382        0.2281816208        1.0427746989
C             0.8318767217        0.3783076715        0.0415464329



     Writing output data file ./pp.save/
     NEW-OLD atomic charge density approx. for the potential
     extrapolated charge   31.78367, renormalised to   32.00000

     total cpu time spent up to now is       92.9 secs

     Self-consistent Calculation

     iteration #  1     ecut=    40.00 Ry     beta= 0.50
     Davidson diagonalization with overlap
     ethr =  1.00E-06,  avg # of iterations =  8.1

     total cpu time spent up to now is       99.6 secs

     total energy              =     -90.51202231 Ry
     Harris-Foulkes estimate   =     -90.82828622 Ry
     estimated scf accuracy    <       0.03721623 Ry

     iteration #  2     ecut=    40.00 Ry     beta= 0.50
     Davidson diagonalization with overlap
     ethr =  1.16E-04,  avg # of iterations =  5.0

     total cpu time spent up to now is      103.5 secs

     total energy              =     -90.49222352 Ry
     Harris-Foulkes estimate   =     -90.63618996 Ry
     estimated scf accuracy    <       1.01703724 Ry

     iteration #  3     ecut=    40.00 Ry     beta= 0.50
     Davidson diagonalization with overlap
     ethr =  1.16E-04,  avg # of iterations =  3.9

     total cpu time spent up to now is      106.9 secs

     total energy              =     -90.54140329 Ry
     Harris-Foulkes estimate   =     -90.54447937 Ry
     estimated scf accuracy    <       0.03358641 Ry

     iteration #  4     ecut=    40.00 Ry     beta= 0.50
     Davidson diagonalization with overlap
     ethr =  1.05E-04,  avg # of iterations =  1.0

     total cpu time spent up to now is      108.5 secs

     total energy              =     -90.54183946 Ry
     Harris-Foulkes estimate   =     -90.54278753 Ry
     estimated scf accuracy    <       0.01545992 Ry

     iteration #  5     ecut=    40.00 Ry     beta= 0.50
     Davidson diagonalization with overlap
     ethr =  4.83E-05,  avg # of iterations =  1.0

     total cpu time spent up to now is      110.2 secs

     total energy              =     -90.54068988 Ry
     Harris-Foulkes estimate   =     -90.54201852 Ry
     estimated scf accuracy    <       0.00810680 Ry

     iteration #  6     ecut=    40.00 Ry     beta= 0.50
     Davidson diagonalization with overlap
     ethr =  2.53E-05,  avg # of iterations =  1.1

     total cpu time spent up to now is      112.0 secs

     total energy              =     -90.54124053 Ry
     Harris-Foulkes estimate   =     -90.54126724 Ry
     estimated scf accuracy    <       0.00009980 Ry

     iteration #  7     ecut=    40.00 Ry     beta= 0.50
     Davidson diagonalization with overlap
     ethr =  3.12E-07,  avg # of iterations =  5.6

     total cpu time spent up to now is      116.6 secs

     total energy              =     -90.54127082 Ry
     Harris-Foulkes estimate   =     -90.54128929 Ry
     estimated scf accuracy    <       0.00012705 Ry

     iteration #  8     ecut=    40.00 Ry     beta= 0.50
     Davidson diagonalization with overlap
     ethr =  3.12E-07,  avg # of iterations =  1.2

     total cpu time spent up to now is      118.4 secs

     total energy              =     -90.54127230 Ry
     Harris-Foulkes estimate   =     -90.54127711 Ry
     estimated scf accuracy    <       0.00002889 Ry

     iteration #  9     ecut=    40.00 Ry     beta= 0.50
     Davidson diagonalization with overlap
     ethr =  9.03E-08,  avg # of iterations =  1.1

     total cpu time spent up to now is      120.2 secs

     total energy              =     -90.54127433 Ry
     Harris-Foulkes estimate   =     -90.54127464 Ry
     estimated scf accuracy    <       0.00000204 Ry

     iteration # 10     ecut=    40.00 Ry     beta= 0.50
     Davidson diagonalization with overlap
     ethr =  6.36E-09,  avg # of iterations =  2.9

     total cpu time spent up to now is      123.1 secs

     total energy              =     -90.54127453 Ry
     Harris-Foulkes estimate   =     -90.54127479 Ry
     estimated scf accuracy    <       0.00000152 Ry

     iteration # 11     ecut=    40.00 Ry     beta= 0.50
     Davidson diagonalization with overlap
     ethr =  4.75E-09,  avg # of iterations =  1.0

     total cpu time spent up to now is      124.8 secs

     End of self-consistent calculation

          k = 0.0000 0.0000 0.0000 (  2311 PWs)   bands (ev):

   -14.8896 -12.4448 -10.7320  -9.2058  -8.4796  -5.1658  -4.0887  -1.3387
    -0.4722  -0.0668   0.3041   0.9826   1.9519   2.4329   4.3456   5.0761
     5.3237   7.4928   9.3490  10.7948

          k = 0.0010-0.0003 0.7814 (  2290 PWs)   bands (ev):

   -13.8138 -11.4702  -9.8672  -8.3715  -7.8075  -4.7268  -4.6485  -3.4081
    -2.7225  -1.4371  -0.7134   0.6791   1.1406   2.0708   2.8133   4.6113
     5.2765   7.2714   8.8960   9.4050

          k =-0.0020 0.0006-1.5628 (  2306 PWs)   bands (ev):

   -11.2289 -10.2543  -9.5300  -7.7176  -7.3541  -6.0233  -5.7357  -4.2945
    -4.1366  -3.1663  -1.7417  -0.9491   1.8861   2.3613   3.9447   4.3949
     5.7753   6.0222   7.2664   8.1638

          k =-0.0722 0.6148 0.0000 (  2316 PWs)   bands (ev):

   -14.3233 -12.5157 -12.2028  -9.8790  -6.1392  -4.7869  -3.4606  -1.9181
    -0.7538  -0.4833   0.3051   0.4011   0.8904   2.0470   3.9408   5.3273
     5.8094   7.7321  10.5931  11.4063

          k =-0.0712 0.6144 0.7814 (  2287 PWs)   bands (ev):

   -13.2617 -11.5348 -11.1893  -9.1106  -5.8522  -4.7304  -3.7386  -3.3061
    -2.7466  -2.4071  -1.0306   0.1893   1.0500   2.0387   2.9294   4.2811
     5.8765   7.4070   8.4739  10.0352

          k =-0.0742 0.6154-1.5628 (  2286 PWs)   bands (ev):

   -10.9027  -9.7576  -9.4603  -8.0565  -7.5582  -7.3352  -7.2635  -3.4715
    -2.5495  -2.4003  -1.4555  -0.7607   1.6370   2.4201   3.6637   4.5133
     5.6080   5.8150   6.7409   8.5792

          k =-0.0732 0.6151-0.7814 (  2287 PWs)   bands (ev):

   -13.2619 -11.5356 -11.1879  -9.1102  -5.8550  -4.7313  -3.7354  -3.3043
    -2.7477  -2.4076  -1.0311   0.1890   1.0527   2.0382   2.9268   4.2824
     5.8714   7.4102   8.4749  10.0413

          k =-0.5095 0.0623-0.0005 (  2298 PWs)   bands (ev):

   -14.8837 -12.5036 -10.5864  -9.2952  -8.4653  -5.4692  -3.6856  -1.3374
    -0.7398   0.2989   0.4361   0.6795   1.9573   2.3247   4.3466   4.8096
     5.3245   8.1032   9.4399  11.0800

          k =-0.5085 0.0620 0.7809 (  2288 PWs)   bands (ev):

   -13.8080 -11.5269  -9.7328  -8.4586  -7.7936  -4.8890  -4.6383  -3.3026
    -2.6212  -1.4292  -0.7206   0.5125   1.3748   2.0015   2.7566   4.7116
     4.9851   7.2806   9.0933   9.6955

          k =-0.5115 0.0629-1.5633 (  2300 PWs)   bands (ev):

   -11.2218 -10.2527  -9.5704  -7.6232  -7.3671  -6.0927  -5.7209  -4.3022
    -4.1427  -3.2065  -1.6677  -0.8539   1.8520   1.9198   4.4812   4.7211
     5.5848   5.8165   6.9577   8.2569

          k =-0.5817 0.6770-0.0005 (  2302 PWs)   bands (ev):

   -14.3213 -12.5762 -12.1235  -9.9258  -6.0309  -4.8202  -3.5324  -1.7776
    -0.7528  -0.7512   0.2638   0.2986   0.8977   2.4074   4.3998   5.2545
     5.3231   7.7301  10.4420  11.4847

          k =-0.5807 0.6767 0.7809 (  2292 PWs)   bands (ev):

   -13.2597 -11.5888 -11.1156  -9.1552  -5.7977  -4.6934  -3.8168  -3.3016
    -2.7118  -2.4461  -0.9609   0.2520   0.6849   2.0016   3.2366   4.6540
     5.5010   7.3202   8.5174  10.1274

          k =-0.5837 0.6777-1.5633 (  2294 PWs)   bands (ev):

   -10.9038  -9.7563  -9.4549  -8.0540  -7.6011  -7.2893  -7.2816  -3.3947
    -2.6089  -2.4174  -1.4684  -0.7487   1.6674   2.2756   4.1331   4.2884
     5.5732   6.0641   6.0907   8.9518

          k =-0.5827 0.6774-0.7819 (  2294 PWs)   bands (ev):

   -13.2601 -11.5878 -11.1158  -9.1557  -5.7988  -4.6917  -3.8172  -3.3000
    -2.7120  -2.4487  -0.9606   0.2547   0.6813   2.0025   3.2385   4.6580
     5.4954   7.3177   8.5204  10.1261

     the Fermi energy is     5.1912 ev

!    total energy              =     -90.54127466 Ry
     Harris-Foulkes estimate   =     -90.54127467 Ry
     estimated scf accuracy    <       0.00000002 Ry

     The total energy is the sum of the following terms:

     one-electron contribution =     -50.43522819 Ry
     hartree contribution      =      38.93090032 Ry
     xc contribution           =     -27.49233570 Ry
     ewald contribution        =     -51.54424088 Ry
     smearing contrib. (-TS)   =      -0.00037020 Ry

     convergence has been achieved in  11 iterations

     Forces acting on atoms (cartesian axes, Ry/au):

     atom    1 type  1   force =    -0.01289849    0.00059697   -0.00035900
     atom    2 type  1   force =     0.01008572   -0.00874356    0.00025388
     atom    3 type  1   force =     0.00880427   -0.01761845    0.00040435
     atom    4 type  1   force =    -0.00378437    0.00458874    0.00002102
     atom    5 type  1   force =    -0.01099793    0.01224405    0.00006363
     atom    6 type  1   force =     0.00010976   -0.00196319    0.00000788
     atom    7 type  1   force =     0.00810259    0.00621561   -0.00056277
     atom    8 type  1   force =     0.00057847    0.00467982    0.00017101

     Total force =     0.034208     Total SCF correction =     0.000257


     Computing stress (Cartesian axis) and pressure

          total   stress  (Ry/bohr**3)                   (kbar)     P=       -4.05
  -0.00002741   0.00007024   0.00000093           -4.03       10.33        0.14
   0.00007024  -0.00005355  -0.00000036           10.33       -7.88       -0.05
   0.00000093  -0.00000036  -0.00000167            0.14       -0.05       -0.25


     number of scf cycles    =   7
     number of bfgs steps    =   6

     enthalpy old            =     -90.5376376008 Ry
     enthalpy new            =     -90.5412368176 Ry

     CASE: enthalpy_new < enthalpy_old

     new trust radius        =       0.0676013456 bohr
     new conv_thr            =       0.0000001762 Ry

     new unit-cell volume =    553.64748 a.u.^3 (    82.04209 Ang^3 )
     density =      1.94305 g/cm^3

CELL_PARAMETERS (bohr)
  14.726158252   1.915464353  -0.019658954
   1.085094370   8.096858734   0.002483822
  -0.005389616  -0.000616426   4.725689070

ATOMIC_POSITIONS (crystal)
C             0.5917081949        0.7281073373        0.5400624919
C             0.2256456226        0.3460888604        0.5436200520
C             0.2276757877        0.6657507469        0.5435648938
C             0.6686451436        0.6026250201        0.0406980782
C             0.1902257116        0.1865090958        0.0433844197
C             0.2321286194        0.8269389184        0.0435860793
C            -0.0067999287        0.2278721301        1.0426526045
C             0.8321588489        0.3758288909        0.0417133807



     Writing output data file ./pp.save/
     NEW-OLD atomic charge density approx. for the potential
     extrapolated charge   31.82713, renormalised to   32.00000

     total cpu time spent up to now is      124.9 secs

     Self-consistent Calculation

     iteration #  1     ecut=    40.00 Ry     beta= 0.50
     Davidson diagonalization with overlap
     ethr =  1.00E-06,  avg # of iterations =  9.0

     total cpu time spent up to now is      134.0 secs

     total energy              =     -90.52609188 Ry
     Harris-Foulkes estimate   =     -90.77218657 Ry
     estimated scf accuracy    <       0.02136872 Ry

     iteration #  2     ecut=    40.00 Ry     beta= 0.50
     Davidson diagonalization with overlap
[...]
     new conv_thr            =       0.0000000262 Ry

     new unit-cell volume =    505.21041 a.u.^3 (    74.86446 Ang^3 )
     density =      2.12934 g/cm^3

CELL_PARAMETERS (bohr)
  15.005305375   4.384407686   0.006544879
   2.473594042   7.768126112  -0.003923441
   0.000660491   0.001850812   4.778854964

ATOMIC_POSITIONS (crystal)
C             0.5164830957        0.8732327934        0.5417807915
C             0.2982121350        0.1392272146        0.5427667950
C             0.2594205123        0.5272280274        0.5433048998
C             0.6152904589        0.7636198614        0.0415115488
C             0.2081179231        0.0810165343        0.0429338521
C             0.2459445734        0.6934662183        0.0433297532
C            -0.0019745824        0.3445454645        1.0423925129
C             0.8198938840        0.5373848862        0.0412618468



     Writing output data file ./pp.save/
     NEW-OLD atomic charge density approx. for the potential
     extrapolated charge   31.99670, renormalised to   32.00000

     total cpu time spent up to now is     2708.3 secs

     Self-consistent Calculation

     iteration #  1     ecut=    40.00 Ry     beta= 0.50
     Davidson diagonalization with overlap
     ethr =  1.00E-06,  avg # of iterations =  3.5

     Threshold (ethr) on eigenvalues was too large:
     Diagonalizing with lowered threshold

     Davidson diagonalization with overlap
     ethr =  8.50E-08,  avg # of iterations =  1.9

     total cpu time spent up to now is     2738.0 secs

     total energy              =     -90.80494619 Ry
     Harris-Foulkes estimate   =     -90.80937608 Ry
     estimated scf accuracy    <       0.00002733 Ry

     iteration #  2     ecut=    40.00 Ry     beta= 0.50
     Davidson diagonalization with overlap
     ethr =  8.54E-08,  avg # of iterations =  2.3

     total cpu time spent up to now is     2752.6 secs

     total energy              =     -90.80494256 Ry
     Harris-Foulkes estimate   =     -90.80496064 Ry
     estimated scf accuracy    <       0.00006260 Ry

     iteration #  3     ecut=    40.00 Ry     beta= 0.50
     Davidson diagonalization with overlap
     ethr =  8.54E-08,  avg # of iterations =  2.1

     total cpu time spent up to now is     2765.5 secs

     total energy              =     -90.80495196 Ry
     Harris-Foulkes estimate   =     -90.80495441 Ry
     estimated scf accuracy    <       0.00001102 Ry

     iteration #  4     ecut=    40.00 Ry     beta= 0.50
     Davidson diagonalization with overlap
     ethr =  3.44E-08,  avg # of iterations =  1.2

     total cpu time spent up to now is     2775.6 secs

     total energy              =     -90.80495318 Ry
     Harris-Foulkes estimate   =     -90.80495345 Ry
     estimated scf accuracy    <       0.00000090 Ry

     iteration #  5     ecut=    40.00 Ry     beta= 0.50
     Davidson diagonalization with overlap
     ethr =  2.82E-09,  avg # of iterations =  2.1

     total cpu time spent up to now is     2788.7 secs

     total energy              =     -90.80495331 Ry
     Harris-Foulkes estimate   =     -90.80495341 Ry
     estimated scf accuracy    <       0.00000031 Ry

     iteration #  6     ecut=    40.00 Ry     beta= 0.50
     Davidson diagonalization with overlap
     ethr =  9.84E-10,  avg # of iterations =  2.2

     total cpu time spent up to now is     2801.9 secs

     total energy              =     -90.80495337 Ry
     Harris-Foulkes estimate   =     -90.80495340 Ry
     estimated scf accuracy    <       0.00000015 Ry

     iteration #  7     ecut=    40.00 Ry     beta= 0.50
     Davidson diagonalization with overlap
     ethr =  4.76E-10,  avg # of iterations =  1.3

     total cpu time spent up to now is     2812.8 secs

     End of self-consistent calculation

          k = 0.0000 0.0000 0.0000 (  2311 PWs)   bands (ev):

   -13.8189 -11.3228  -9.7077  -8.3617  -6.6428  -4.6201  -3.3199  -0.2319
     0.3653   0.8038   1.0915   1.6579   2.7552   3.4617   4.6656   6.3209
     9.1249  10.3665  11.4441  11.9310

          k =-0.0005 0.0005 0.7727 (  2290 PWs)   bands (ev):

   -12.7445 -10.3390  -8.9653  -7.4490  -6.1416  -4.0264  -3.4252  -3.0540
    -1.9510   0.0620   0.1979   1.6232   1.8031   2.9208   3.4754   4.2737
     8.9932   9.8728  10.2374  11.8901

          k = 0.0010-0.0011-1.5454 (  2306 PWs)   bands (ev):

    -9.8635  -9.6515  -8.1912  -6.9828  -6.7588  -4.9386  -4.3354  -2.8231
    -2.7280  -1.7015  -1.2026  -1.1965   1.7615   3.1374   5.6578   5.8190
     6.4903   6.6340   8.0454  12.2196

          k =-0.2042 0.6988-0.0002 (  2316 PWs)   bands (ev):

   -13.2862 -11.6722 -10.6035  -8.6512  -6.3239  -3.2620  -2.1329  -0.8788
     0.1845   0.7692   0.8800   1.5775   2.4699   2.5881   3.4825   6.6118
     8.7652  11.7362  12.1663  12.2490

          k =-0.2047 0.6994 0.7725 (  2287 PWs)   bands (ev):

   -12.2171 -10.7096  -9.6209  -7.9301  -5.7970  -3.5636  -2.8815  -2.2189
    -1.5657  -0.8756  -0.1495   0.9585   1.8963   2.8460   3.5716   4.3148
     8.6719   9.5845  10.7354  12.2812

          k =-0.2032 0.6977-1.5457 (  2286 PWs)   bands (ev):

    -9.4388  -9.2852  -8.5011  -6.9422  -6.7602  -5.9885  -5.7789  -3.2662
    -1.7275  -1.0554  -0.0445   0.0255   1.1418   2.8487   4.9540   5.5544
     6.7927   7.1297   8.5578  12.0363

          k =-0.2037 0.6983-0.7730 (  2287 PWs)   bands (ev):

   -12.2175 -10.7089  -9.6199  -7.9334  -5.7941  -3.5622  -2.8815  -2.2184
    -1.5704  -0.8769  -0.1466   0.9578   1.8977   2.8442   3.5704   4.3167
     8.6710   9.5867  10.7383  12.2800

          k =-0.5427 0.1728 0.0000 (  2298 PWs)   bands (ev):

   -13.7680 -11.6770  -9.1239  -7.6859  -7.5453  -5.5941  -1.8812  -0.1922
    -0.1210   0.7627   1.1851   1.7206   3.3061   3.3218   3.6787   6.7521
     8.7198  11.1000  11.5282  11.8546

          k =-0.5432 0.1734 0.7727 (  2288 PWs)   bands (ev):

   -12.6911 -10.7128  -8.3117  -7.1257  -6.7546  -4.7503  -3.4390  -2.5604
    -1.4047  -0.1960   0.1343   1.2995   2.2368   2.9148   3.6106   4.2252
     8.1708   9.4713  11.1207  12.4092

          k =-0.5417 0.1717-1.5454 (  2300 PWs)   bands (ev):

    -9.7548  -9.6386  -8.6203  -6.8163  -6.4168  -4.8098  -4.4151  -3.6023
    -2.4897  -1.8418  -0.8321  -0.5844   0.8990   3.0353   5.5946   6.0937
     6.6296   6.7250   8.7925  11.5137

          k =-0.7469 0.8716-0.0002 (  2302 PWs)   bands (ev):

   -13.3348 -11.3957 -10.7574  -9.0197  -5.6888  -3.2802  -2.6790  -0.6903
     0.1488   0.5144   0.8006   1.6626   2.6463   2.7041   3.6917   6.4326
     8.9645  10.9431  12.4152  12.6461

          k =-0.7474 0.8722 0.7725 (  2292 PWs)   bands (ev):

   -12.2697 -10.4070  -9.8208  -8.2255  -5.3501  -3.5446  -2.8999  -2.3391
    -1.6907  -1.0861   0.1617   1.1535   1.4358   2.8470   3.5993   4.5030
     8.8735   9.7415  10.3199  12.8412

          k =-0.7459 0.8705-1.5457 (  2294 PWs)   bands (ev):

    -9.5296  -9.2940  -8.2009  -7.0469  -6.9166  -6.0689  -5.7581  -2.8604
    -1.9298  -1.2720  -0.1160  -0.0666   1.5903   2.9410   4.9601   5.2013
     7.0373   7.0965   8.1738  12.1204

          k =-0.7464 0.8711-0.7729 (  2294 PWs)   bands (ev):

   -12.2696 -10.4075  -9.8219  -8.2223  -5.3520  -3.5446  -2.8999  -2.3401
    -1.6928  -1.0861   0.1651   1.1530   1.4358   2.8471   3.6015   4.5025
     8.8736   9.7393  10.3179  12.8418

     the Fermi energy is     6.6316 ev

!    total energy              =     -90.80495339 Ry
     Harris-Foulkes estimate   =     -90.80495339 Ry
     estimated scf accuracy    <          7.5E-09 Ry

     The total energy is the sum of the following terms:

     one-electron contribution =     -49.04127477 Ry
     hartree contribution      =      39.51082223 Ry
     xc contribution           =     -27.80064805 Ry
     ewald contribution        =     -53.47225332 Ry
     smearing contrib. (-TS)   =      -0.00159948 Ry

     convergence has been achieved in   7 iterations

     Forces acting on atoms (cartesian axes, Ry/au):

     atom    1 type  1   force =    -0.00149128    0.00453944    0.00024968
     atom    2 type  1   force =    -0.00094328    0.00409269   -0.00021032
     atom    3 type  1   force =     0.00195514   -0.00450483   -0.00029756
     atom    4 type  1   force =     0.00100406    0.00005825   -0.00002307
     atom    5 type  1   force =     0.00100558    0.00249135    0.00005356
     atom    6 type  1   force =     0.00144901   -0.00178645   -0.00018465
     atom    7 type  1   force =    -0.00110956   -0.00470330    0.00028776
     atom    8 type  1   force =    -0.00186967   -0.00018716    0.00012461

     Total force =     0.010263     Total SCF correction =     0.000109


     Computing stress (Cartesian axis) and pressure

          total   stress  (Ry/bohr**3)                   (kbar)     P=       -0.67
  -0.00000354  -0.00002277   0.00000030           -0.52       -3.35        0.04
  -0.00002277  -0.00000510   0.00000045           -3.35       -0.75        0.07
   0.00000030   0.00000045  -0.00000509            0.04        0.07       -0.75


     number of scf cycles    =  36
     number of bfgs steps    =  34

     enthalpy old            =     -90.8048218019 Ry
     enthalpy new            =     -90.8049190443 Ry

     CASE: enthalpy_new < enthalpy_old

     new trust radius        =       0.0137181392 bohr
     new conv_thr            =       0.0000000100 Ry

     new unit-cell volume =    505.22287 a.u.^3 (    74.86630 Ang^3 )
     density =      2.12929 g/cm^3

CELL_PARAMETERS (bohr)
  14.991197422   4.371756260   0.007004702
   2.467068644   7.771464848  -0.003733169
   0.000833631   0.001962059   4.778960212

ATOMIC_POSITIONS (crystal)
C             0.5164802028        0.8735686575        0.5419195978
C             0.2981838345        0.1396941451        0.5428067919
C             0.2594026653        0.5274337280        0.5430515998
C             0.6151109297        0.7647946015        0.0415962539
C             0.2082168981        0.0808650498        0.0430058947
C             0.2462268121        0.6932025218        0.0431272991
C            -0.0020367280        0.3429335026        1.0425043227
C             0.8198033854        0.5372287936        0.0412702402



     Writing output data file ./pp.save/
     NEW-OLD atomic charge density approx. for the potential
     extrapolated charge   32.00079, renormalised to   32.00000

     total cpu time spent up to now is     2813.3 secs

     Self-consistent Calculation

     iteration #  1     ecut=    40.00 Ry     beta= 0.50
     Davidson diagonalization with overlap
     ethr =  1.00E-06,  avg # of iterations =  4.0

     total cpu time spent up to now is     2834.3 secs

     total energy              =     -90.80503893 Ry
     Harris-Foulkes estimate   =     -90.80399896 Ry
     estimated scf accuracy    <       0.00003482 Ry

     iteration #  2     ecut=    40.00 Ry     beta= 0.50
     Davidson diagonalization with overlap
     ethr =  1.09E-07,  avg # of iterations =  2.0

     total cpu time spent up to now is     2848.2 secs

     total energy              =     -90.80503539 Ry
     Harris-Foulkes estimate   =     -90.80505480 Ry
     estimated scf accuracy    <       0.00006108 Ry

     iteration #  3     ecut=    40.00 Ry     beta= 0.50
     Davidson diagonalization with overlap
     ethr =  1.09E-07,  avg # of iterations =  2.0

     total cpu time spent up to now is     2860.8 secs

     total energy              =     -90.80504554 Ry
     Harris-Foulkes estimate   =     -90.80504974 Ry
     estimated scf accuracy    <       0.00001899 Ry

     iteration #  4     ecut=    40.00 Ry     beta= 0.50
     Davidson diagonalization with overlap
     ethr =  5.93E-08,  avg # of iterations =  1.1

     total cpu time spent up to now is     2871.0 secs

     total energy              =     -90.80504731 Ry
     Harris-Foulkes estimate   =     -90.80504818 Ry
     estimated scf accuracy    <       0.00000286 Ry

     iteration #  5     ecut=    40.00 Ry     beta= 0.50
     Davidson diagonalization with overlap
     ethr =  8.93E-09,  avg # of iterations =  2.1

     total cpu time spent up to now is     2883.6 secs

     total energy              =     -90.80504782 Ry
     Harris-Foulkes estimate   =     -90.80504792 Ry
     estimated scf accuracy    <       0.00000047 Ry

     iteration #  6     ecut=    40.00 Ry     beta= 0.50
     Davidson diagonalization with overlap
     ethr =  1.47E-09,  avg # of iterations =  2.0

     total cpu time spent up to now is     2895.9 secs

     total energy              =     -90.80504790 Ry
     Harris-Foulkes estimate   =     -90.80504790 Ry
     estimated scf accuracy    <       0.00000004 Ry

     iteration #  7     ecut=    40.00 Ry     beta= 0.50
     Davidson diagonalization with overlap
     ethr =  1.37E-10,  avg # of iterations =  2.1

     total cpu time spent up to now is     2909.0 secs

     End of self-consistent calculation

          k = 0.0000 0.0000 0.0000 (  2311 PWs)   bands (ev):

   -13.8185 -11.3240  -9.7059  -8.3633  -6.6436  -4.6175  -3.3155  -0.2374
     0.3666   0.7931   1.0993   1.6543   2.7587   3.4590   4.6643   6.3206
     9.1335  10.3550  11.4568  11.9263

          k =-0.0005 0.0005 0.7727 (  2290 PWs)   bands (ev):

   -12.7441 -10.3404  -8.9634  -7.4507  -6.1423  -4.0245  -3.4270  -3.0528
    -1.9563   0.0693   0.1945   1.6254   1.8043   2.9189   3.4740   4.2721
     8.9996   9.8691  10.2363  11.8925

          k = 0.0010-0.0011-1.5454 (  2306 PWs)   bands (ev):

    -9.8624  -9.6511  -8.1914  -6.9856  -6.7627  -4.9403  -4.3382  -2.8244
    -2.7218  -1.6992  -1.2013  -1.1948   1.7625   3.1384   5.6624   5.8142
     6.4833   6.6366   8.0463  12.2160

          k =-0.2036 0.6982-0.0003 (  2316 PWs)   bands (ev):

   -13.2860 -11.6721 -10.6050  -8.6507  -6.3203  -3.2619  -2.1314  -0.8752
     0.1764   0.7605   0.8811   1.5811   2.4691   2.5870   3.4825   6.6105
     8.7754  11.7276  12.1690  12.2394

          k =-0.2041 0.6987 0.7724 (  2287 PWs)   bands (ev):

   -12.2170 -10.7096  -9.6224  -7.9297  -5.7938  -3.5644  -2.8883  -2.2198
    -1.5657  -0.8752  -0.1453   0.9609   1.8947   2.8461   3.5714   4.3128
     8.6763   9.5839  10.7358  12.2807

          k =-0.2026 0.6971-1.5456 (  2286 PWs)   bands (ev):

    -9.4369  -9.2846  -8.5023  -6.9465  -6.7630  -5.9897  -5.7803  -3.2652
    -1.7196  -1.0532  -0.0406   0.0213   1.1418   2.8485   4.9541   5.5541
     6.7912   7.1257   8.5578  12.0365

          k =-0.2031 0.6976-0.7729 (  2287 PWs)   bands (ev):

   -12.2173 -10.7089  -9.6216  -7.9331  -5.7907  -3.5625  -2.8879  -2.2205
    -1.5688  -0.8768  -0.1435   0.9605   1.8959   2.8446   3.5701   4.3146
     8.6760   9.5861  10.7376  12.2798

          k =-0.5429 0.1723 0.0000 (  2298 PWs)   bands (ev):

   -13.7676 -11.6775  -9.1258  -7.6835  -7.5456  -5.5923  -1.8781  -0.1977
    -0.1165   0.7521   1.1840   1.7210   3.3076   3.3196   3.6832   6.7501
     8.7311  11.0989  11.5318  11.8530

          k =-0.5434 0.1729 0.7727 (  2288 PWs)   bands (ev):

   -12.6907 -10.7133  -8.3137  -7.1229  -6.7554  -4.7485  -3.4427  -2.5649
    -1.4040  -0.1901   0.1334   1.3009   2.2367   2.9127   3.6109   4.2229
     8.1749   9.4739  11.1193  12.4085

          k =-0.5419 0.1713-1.5454 (  2300 PWs)   bands (ev):

    -9.7532  -9.6382  -8.6215  -6.8200  -6.4196  -4.8110  -4.4178  -3.6027
    -2.4849  -1.8380  -0.8324  -0.5807   0.8987   3.0347   5.5990   6.0903
     6.6292   6.7193   8.7901  11.5191

          k =-0.7465 0.8705-0.0002 (  2302 PWs)   bands (ev):

   -13.3345 -11.3968 -10.7573  -9.0192  -5.6862  -3.2792  -2.6773  -0.6857
     0.1409   0.5139   0.7916   1.6658   2.6450   2.7057   3.6893   6.4320
     8.9723  10.9437  12.4220  12.6412

          k =-0.7470 0.8711 0.7725 (  2292 PWs)   bands (ev):

   -12.2695 -10.4082  -9.8204  -8.2254  -5.3481  -3.5447  -2.9032  -2.3421
    -1.6912  -1.0857   0.1657   1.1552   1.4359   2.8448   3.5995   4.5013
     8.8797   9.7365  10.3233  12.8395

          k =-0.7455 0.8695-1.5456 (  2294 PWs)   bands (ev):

    -9.5281  -9.2934  -8.2016  -7.0493  -6.9211  -6.0704  -5.7593  -2.8598
    -1.9223  -1.2700  -0.1122  -0.0707   1.5908   2.9419   4.9598   5.2006
     7.0324   7.0952   8.1761  12.1189

          k =-0.7460 0.8700-0.7729 (  2294 PWs)   bands (ev):

   -12.2693 -10.4088  -9.8218  -8.2221  -5.3497  -3.5450  -2.9033  -2.3428
    -1.6931  -1.0852   0.1681   1.1550   1.4357   2.8449   3.6020   4.5007
     8.8796   9.7344  10.3211  12.8400

     the Fermi energy is     6.6299 ev

!    total energy              =     -90.80504791 Ry
     Harris-Foulkes estimate   =     -90.80504791 Ry
     estimated scf accuracy    <          4.3E-09 Ry

     The total energy is the sum of the following terms:

     one-electron contribution =     -49.04913615 Ry
     hartree contribution      =      39.51446253 Ry
     xc contribution           =     -27.80053299 Ry
     ewald contribution        =     -53.46824002 Ry
     smearing contrib. (-TS)   =      -0.00160128 Ry

     convergence has been achieved in   7 iterations

     Forces acting on atoms (cartesian axes, Ry/au):

     atom    1 type  1   force =    -0.00240186    0.00649478    0.00009479
     atom    2 type  1   force =    -0.00118507    0.00307457   -0.00028208
     atom    3 type  1   force =     0.00251275   -0.00518847   -0.00004275
     atom    4 type  1   force =     0.00263320   -0.00230958    0.00001495
     atom    5 type  1   force =    -0.00032940    0.00225559   -0.00014881
     atom    6 type  1   force =     0.00108272   -0.00042501   -0.00008787
     atom    7 type  1   force =    -0.00045946   -0.00397374    0.00027203
     atom    8 type  1   force =    -0.00185289    0.00007186    0.00017974

     Total force =     0.011425     Total SCF correction =     0.000114


     Computing stress (Cartesian axis) and pressure

          total   stress  (Ry/bohr**3)                   (kbar)     P=       -0.69
  -0.00000613  -0.00002132   0.00000013           -0.90       -3.14        0.02
  -0.00002132  -0.00000520  -0.00000009           -3.14       -0.77       -0.01
   0.00000013  -0.00000009  -0.00000265            0.02       -0.01       -0.39


     number of scf cycles    =  37
     number of bfgs steps    =  35

     enthalpy old            =     -90.8049190443 Ry
     enthalpy new            =     -90.8050135621 Ry

     CASE: enthalpy_new < enthalpy_old

     new trust radius        =       0.0205774692 bohr
     new conv_thr            =       0.0000000100 Ry

     new unit-cell volume =    505.18729 a.u.^3 (    74.86103 Ang^3 )
     density =      2.12944 g/cm^3

CELL_PARAMETERS (bohr)
  14.970477788   4.353712903   0.007604233
   2.457249415   7.775779062  -0.003515868
   0.001058344   0.002076485   4.779038403

ATOMIC_POSITIONS (crystal)
C             0.5164261871        0.8744344742        0.5420783419
C             0.2981001089        0.1405172446        0.5428332399
C             0.2595065689        0.5275997233        0.5427146548
C             0.6149277715        0.7660232839        0.0417435050
C             0.2082980812        0.0808381126        0.0430469832
C             0.2466413135        0.6929057479        0.0428617630
C            -0.0021742885        0.3405685944        1.0426950892
C             0.8196622573        0.5368338191        0.0413084230



     Writing output data file ./pp.save/
     NEW-OLD atomic charge density approx. for the potential
     extrapolated charge   31.99775, renormalised to   32.00000

     total cpu time spent up to now is     2909.5 secs

     Self-consistent Calculation

     iteration #  1     ecut=    40.00 Ry     beta= 0.50
     Davidson diagonalization with overlap
     ethr =  1.00E-06,  avg # of iterations =  4.2

     total cpu time spent up to now is     2933.3 secs

     total energy              =     -90.80515784 Ry
     Harris-Foulkes estimate   =     -90.80820533 Ry
     estimated scf accuracy    <       0.00007151 Ry

     iteration #  2     ecut=    40.00 Ry     beta= 0.50
     Davidson diagonalization with overlap
