
     Program PWSCF v.6.5 starts on  9Jul2022 at  9:40: 8 

     This program is part of the open-source Quantum ESPRESSO suite
     for quantum simulation of materials; please cite
         "P. Giannozzi et al., J. Phys.:Condens. Matter 21 395502 (2009);
         "P. Giannozzi et al., J. Phys.:Condens. Matter 29 465901 (2017);
          URL http://www.quantum-espresso.org", 
     in publications or presentations arising from this work. More details at
     http://www.quantum-espresso.org/quote

     Parallel version (MPI), running on    96 processors

     MPI processes distributed on     2 nodes
     R & G space division:  proc/nbgrp/npool/nimage =      96
     Waiting for input...
     Reading input from standard input
     Message from routine read_cards :
     DEPRECATED: no units specified in CELL_PARAMETERS card

     Current dimensions of program PWSCF are:
     Max number of different atomic species (ntypx) = 10
     Max number of k-points (npk) =  40000
     Max angular momentum in pseudopotentials (lmaxx) =  3

     Subspace diagonalization in iterative solution of the eigenvalue problem:
     one sub-group per band group will be used
     scalapack distributed-memory algorithm (size of sub-group:  9*  9 procs)

 
     Parallelization info
     --------------------
     sticks:   dense  smooth     PW     G-vecs:    dense   smooth      PW
     Min           4       4      1                  124      124      21
     Max           5       5      2                  135      135      30
     Sum         439     439    147                12397    12397    2471
 


     bravais-lattice index     =            0
     lattice parameter (alat)  =      10.7516  a.u.
     unit-cell volume          =     362.2546 (a.u.)^3
     number of atoms/cell      =            8
     number of atomic types    =            1
     number of electrons       =        32.00
     number of Kohn-Sham states=           20
     kinetic-energy cutoff     =      40.0000  Ry
     charge density cutoff     =     160.0000  Ry
     convergence threshold     =      5.0E-04
     mixing beta               =       0.5000
     number of iterations used =            8  plain     mixing
     Exchange-correlation=  SLA  PW   PBE  PBE
                           (   1   4   3   4   0   0   0)
     nstep                     =          250


     celldm(1)=  10.751600  celldm(2)=   0.000000  celldm(3)=   0.000000
     celldm(4)=   0.000000  celldm(5)=   0.000000  celldm(6)=   0.000000

     crystal axes: (cart. coord. in units of alat)
               a(1) = (   1.000000   0.000000   0.000000 )  
               a(2) = (   0.000000   0.297723   0.000000 )  
               a(3) = (   0.000000   0.000000   0.978998 )  

     reciprocal axes: (cart. coord. in units 2 pi/alat)
               b(1) = (  1.000000  0.000000  0.000000 )  
               b(2) = (  0.000000  3.358825  0.000000 )  
               b(3) = (  0.000000  0.000000  1.021452 )  


     PseudoPot. # 1 for C  read from file:
     ./C.pbe-van_bm.upf
     MD5 check sum: 1a69bf6b8db32088f5b2163dbdb77a27
     Pseudo is Ultrasoft, Zval =  4.0
     Generated by new atomic code, or converted to UPF format
     Using radial grid of  721 points,  4 beta functions with: 
                l(1) =   0
                l(2) =   0
                l(3) =   1
                l(4) =   1
     Q(r) pseudized with  8 coefficients,  rinner =    0.800   0.800   0.800


     atomic species   valence    mass     pseudopotential
        C              4.00    12.00000     C ( 1.00)

     No symmetry found



   Cartesian axes

     site n.     atom                  positions (alat units)
         1           C   tau(   1) = (   0.1029000   0.0228473   0.1051151  )
         2           C   tau(   2) = (   0.1029000   0.1260143   0.3843842  )
         3           C   tau(   3) = (   0.6029000   0.0228473   0.8738834  )
         4           C   tau(   4) = (   0.6029000   0.1260143   0.5946143  )
         5           C   tau(   5) = (   0.8971000   0.2748759   0.8738834  )
         6           C   tau(   6) = (   0.8971000   0.1717088   0.5946143  )
         7           C   tau(   7) = (   0.3971000   0.2748759   0.1051151  )
         8           C   tau(   8) = (   0.3971000   0.1717088   0.3843842  )

     number of k points=    12  Marzari-Vanderbilt smearing, width (Ry)=  0.0200
                       cart. coord. in units 2pi/alat
        k(    1) = (   0.0000000   0.0000000   0.0000000), wk =   0.1250000
        k(    2) = (   0.0000000   0.0000000  -0.5107260), wk =   0.1250000
        k(    3) = (   0.0000000   0.8397063   0.0000000), wk =   0.2500000
        k(    4) = (   0.0000000   0.8397063  -0.5107260), wk =   0.2500000
        k(    5) = (   0.0000000  -1.6794127   0.0000000), wk =   0.1250000
        k(    6) = (   0.0000000  -1.6794127  -0.5107260), wk =   0.1250000
        k(    7) = (  -0.5000000   0.0000000   0.0000000), wk =   0.1250000
        k(    8) = (  -0.5000000   0.0000000  -0.5107260), wk =   0.1250000
        k(    9) = (  -0.5000000   0.8397063   0.0000000), wk =   0.2500000
        k(   10) = (  -0.5000000   0.8397063  -0.5107260), wk =   0.2500000
        k(   11) = (  -0.5000000  -1.6794127   0.0000000), wk =   0.1250000
        k(   12) = (  -0.5000000  -1.6794127  -0.5107260), wk =   0.1250000

     Dense  grid:    12397 G-vectors     FFT dimensions: (  45,  15,  45)

     Estimated max dynamical RAM per process >       0.81 MB

     Estimated total dynamical RAM >      77.43 MB

     Initial potential from superposition of free atoms

     starting charge   31.99968, renormalised to   32.00000
     Starting wfcs are   32 randomized atomic wfcs

     total cpu time spent up to now is        0.6 secs

     Self-consistent Calculation

     iteration #  1     ecut=    40.00 Ry     beta= 0.50
     Davidson diagonalization with overlap
     ethr =  1.00E-02,  avg # of iterations =  2.0

     Threshold (ethr) on eigenvalues was too large:
     Diagonalizing with lowered threshold

     Davidson diagonalization with overlap
     ethr =  7.03E-04,  avg # of iterations =  1.0

     total cpu time spent up to now is        1.6 secs

     total energy              =     -89.23103869 Ry
     Harris-Foulkes estimate   =     -89.32370766 Ry
     estimated scf accuracy    <       0.22305151 Ry

     iteration #  2     ecut=    40.00 Ry     beta= 0.50
     Davidson diagonalization with overlap
     ethr =  6.97E-04,  avg # of iterations =  1.9

     total cpu time spent up to now is        2.1 secs

     total energy              =     -89.24950681 Ry
     Harris-Foulkes estimate   =     -89.25449855 Ry
     estimated scf accuracy    <       0.01902780 Ry

     iteration #  3     ecut=    40.00 Ry     beta= 0.50
     Davidson diagonalization with overlap
     ethr =  5.95E-05,  avg # of iterations =  2.2

     total cpu time spent up to now is        2.6 secs

     total energy              =     -89.25109762 Ry
     Harris-Foulkes estimate   =     -89.25128217 Ry
     estimated scf accuracy    <       0.00194212 Ry

     iteration #  4     ecut=    40.00 Ry     beta= 0.50
     Davidson diagonalization with overlap
     ethr =  6.07E-06,  avg # of iterations =  4.1

     total cpu time spent up to now is        3.4 secs

     total energy              =     -89.25107181 Ry
     Harris-Foulkes estimate   =     -89.25170530 Ry
     estimated scf accuracy    <       0.00322262 Ry

     iteration #  5     ecut=    40.00 Ry     beta= 0.50
     Davidson diagonalization with overlap
     ethr =  6.07E-06,  avg # of iterations =  1.8

     total cpu time spent up to now is        3.9 secs

     End of self-consistent calculation

          k = 0.0000 0.0000 0.0000 (  1551 PWs)   bands (ev):

   -10.9715  -9.4095  -7.0347  -6.3356  -3.5275  -3.5137  -2.2498  -0.8164
     0.8405   4.0095   4.3421   4.7179   8.1011  10.1424  10.7922  11.3937
    13.6796  15.8220  16.7226  17.1583

          k = 0.0000 0.0000-0.5107 (  1550 PWs)   bands (ev):

   -10.3666 -10.3466  -6.1434  -6.1321  -4.7014  -4.6929   0.4967   0.5010
     1.8901   1.8944   2.7118   2.7190  10.5485  10.5524  12.0910  12.0956
    13.1943  13.1979  15.4685  15.4740

          k = 0.0000 0.8397 0.0000 (  1528 PWs)   bands (ev):

    -8.3738  -6.8010  -4.5665  -3.8744  -1.1460  -1.1386   0.0861   1.9661
     3.6666   6.4792   6.9170   7.0481   8.6746  11.3353  11.5459  12.6835
    13.0093  13.9594  14.0509  14.9474

          k = 0.0000 0.8397-0.5107 (  1540 PWs)   bands (ev):

    -7.7713  -7.7515  -3.6970  -3.6854  -2.2128  -2.2033   2.7615   2.7641
     4.5542   4.5570   5.2925   5.3032  10.9661  10.9828  12.3459  12.3617
    13.8044  13.8103  14.7167  14.7298

          k = 0.0000-1.6794 0.0000 (  1558 PWs)   bands (ev):

    -0.9248  -0.9241   0.5385   0.5396   2.5170   2.5184   3.5323   3.5333
     5.4331   5.4337   5.5366   5.5377   7.2942   7.2948   8.6560   8.6571
    11.7774  11.7785  13.1258  13.1278

          k = 0.0000-1.6794-0.5107 (  1544 PWs)   bands (ev):

    -0.7635  -0.7580   0.2325   0.2403   2.5145   2.5232   4.2138   4.2224
     4.3962   4.4133   5.6800   5.6822   7.6927   7.7115   9.2578   9.2637
    10.8323  10.8557  13.8213  13.8426

          k =-0.5000 0.0000 0.0000 (  1534 PWs)   bands (ev):

   -10.3891 -10.3666  -5.5012  -5.4775  -5.4489  -5.4379   1.1074   1.1133
     1.3634   1.3671   2.7084   2.7227  10.8788  10.9040  11.6377  11.6445
    13.6579  13.6608  14.9994  15.0183

          k =-0.5000 0.0000-0.5107 (  1556 PWs)   bands (ev):

   -10.2858 -10.2647  -6.9381  -6.9348  -2.4356  -2.4340  -2.0999  -2.0985
     2.5052   2.5215   3.6214   3.6227   9.5674   9.5682  10.6250  10.6269
    14.8039  14.8041  16.7144  16.7250

          k =-0.5000 0.8397 0.0000 (  1562 PWs)   bands (ev):

    -7.7949  -7.7724  -3.0753  -3.0532  -2.9525  -2.9398   3.3007   3.3058
     4.0285   4.0341   5.3655   5.3792  11.1141  11.1319  12.4360  12.4534
    13.5176  13.5237  14.7722  14.7880

          k =-0.5000 0.8397-0.5107 (  1532 PWs)   bands (ev):

    -7.6934  -7.6692  -4.4693  -4.4175  -0.2107  -0.0818   0.3614   0.4801
     5.2088   5.2555   6.0512   6.2010  10.2501  10.6269  11.5039  12.0024
    12.7295  13.5060  14.7565  15.5661

          k =-0.5000-1.6794 0.0000 (  1560 PWs)   bands (ev):

    -0.3866  -0.3813  -0.3645  -0.3584   3.5750   3.5823   3.5932   3.6020
     4.7366   4.7436   4.7549   4.7626   8.4880   8.4957   8.4983   8.5059
    12.2988  12.3123  12.3204  12.3370

          k =-0.5000-1.6794-0.5107 (  1544 PWs)   bands (ev):

    -0.4192  -0.4051  -0.2081  -0.2050   2.5823   2.5837   3.6211   3.6343
     4.7793   4.8015   6.7990   6.8032   7.4302   7.4488   8.1998   8.2084
    11.3197  11.3415  13.4061  13.4199

     the Fermi energy is    12.3297 ev

!    total energy              =     -89.25110335 Ry
     Harris-Foulkes estimate   =     -89.25150043 Ry
     estimated scf accuracy    <       0.00049595 Ry

     The total energy is the sum of the following terms:

     one-electron contribution =       4.99034312 Ry
     hartree contribution      =      18.46622757 Ry
     xc contribution           =     -27.52651891 Ry
     ewald contribution        =     -85.17815268 Ry
     smearing contrib. (-TS)   =      -0.00300245 Ry

     convergence has been achieved in   5 iterations

     Forces acting on atoms (cartesian axes, Ry/au):

     atom    1 type  1   force =     0.02213444   -0.02875003   -0.04193567
     atom    2 type  1   force =     0.02208804    0.02860591    0.04185311
     atom    3 type  1   force =     0.02169100   -0.03197685    0.04196839
     atom    4 type  1   force =     0.02169352    0.03179603   -0.04193658
     atom    5 type  1   force =    -0.02155381    0.02987751    0.04195392
     atom    6 type  1   force =    -0.02157743   -0.02971254   -0.04184821
     atom    7 type  1   force =    -0.02225753    0.03047720   -0.04185572
     atom    8 type  1   force =    -0.02221824   -0.03031722    0.04180076

     Total force =     0.158685     Total SCF correction =     0.058593
     SCF correction compared to forces is large: reduce conv_thr to get better values

     BFGS Geometry Optimization

     number of scf cycles    =   1
     number of bfgs steps    =   0

     energy   new            =     -89.2511033544 Ry

     new trust radius        =       0.0570470381 bohr
     new conv_thr            =       0.0005000000 Ry


ATOMIC_POSITIONS (crystal)
C             0.1049587109        0.0677584231        0.1033859157
C             0.1049543959        0.4321965549        0.3966062399
C             0.6049174674        0.0667503549        0.8966171924
C             0.6049177013        0.4331931554        0.6033858293
C             0.8950952930        0.9325938037        0.8966158178
C             0.8950930963        0.5674577305        0.6033942255
C             0.3950298403        0.9327811491        0.1033935121
C             0.3950334949        0.5672688284        0.3966012672


     NEW-OLD atomic charge density approx. for the potential

     total cpu time spent up to now is        3.9 secs

     Self-consistent Calculation

     iteration #  1     ecut=    40.00 Ry     beta= 0.50
     Davidson diagonalization with overlap
     ethr =  1.00E-06,  avg # of iterations =  8.6

     total cpu time spent up to now is        5.8 secs

     total energy              =     -89.24974276 Ry
     Harris-Foulkes estimate   =     -89.27966267 Ry
     estimated scf accuracy    <       0.04277058 Ry

     iteration #  2     ecut=    40.00 Ry     beta= 0.50
     Davidson diagonalization with overlap
     ethr =  1.34E-04,  avg # of iterations =  4.1

     total cpu time spent up to now is        6.7 secs

     total energy              =     -89.22893725 Ry
     Harris-Foulkes estimate   =     -89.33927958 Ry
     estimated scf accuracy    <       0.58336464 Ry

     iteration #  3     ecut=    40.00 Ry     beta= 0.50
     Davidson diagonalization with overlap
     ethr =  1.34E-04,  avg # of iterations =  4.0

     total cpu time spent up to now is        7.5 secs

     total energy              =     -89.27456676 Ry
     Harris-Foulkes estimate   =     -89.27582014 Ry
     estimated scf accuracy    <       0.00528097 Ry

     iteration #  4     ecut=    40.00 Ry     beta= 0.50
     Davidson diagonalization with overlap
     ethr =  1.65E-05,  avg # of iterations =  2.6

     total cpu time spent up to now is        8.1 secs

     total energy              =     -89.27515969 Ry
     Harris-Foulkes estimate   =     -89.27563751 Ry
     estimated scf accuracy    <       0.00259195 Ry

     iteration #  5     ecut=    40.00 Ry     beta= 0.50
     Davidson diagonalization with overlap
     ethr =  8.10E-06,  avg # of iterations =  1.2

     total cpu time spent up to now is        8.4 secs

     End of self-consistent calculation

          k = 0.0000 0.0000 0.0000 (  1551 PWs)   bands (ev):

   -10.9027  -9.2658  -6.8986  -6.5819  -3.6935  -3.0134  -2.6465  -0.8632
     0.8478   4.2474   4.3414   4.4326   8.0840  10.2044  10.4943  11.5764
    13.4738  16.3914  16.3962  16.6720

          k = 0.0000 0.0000-0.5107 (  1550 PWs)   bands (ev):

   -10.2781 -10.2679  -6.0076  -5.9986  -4.9244  -4.9208   0.7173   0.7210
     1.6861   1.6864   2.6786   2.6862  10.5605  10.5650  11.9025  11.9083
    13.3892  13.3913  15.1893  15.1925

          k = 0.0000 0.8397 0.0000 (  1528 PWs)   bands (ev):

    -8.3033  -6.6533  -4.4229  -4.1210  -1.3076  -0.6367  -0.3002   1.9016
     3.6712   6.5602   6.8080   7.0142   8.6766  11.4371  11.4424  12.6278
    13.0997  13.8992  13.9202  14.8075

          k = 0.0000 0.8397-0.5107 (  1540 PWs)   bands (ev):

    -7.6817  -7.6716  -3.5544  -3.5453  -2.4384  -2.4342   2.9733   2.9756
     4.3090   4.3100   5.2844   5.2930  11.0875  11.0916  12.2387  12.2443
    13.8658  13.8711  14.6384  14.6461

          k = 0.0000-1.6794 0.0000 (  1558 PWs)   bands (ev):

    -0.8605  -0.8561   0.7016   0.7169   2.6629   2.6852   3.3741   3.3818
     5.3343   5.3452   5.7864   5.7924   6.9231   6.9332   8.3351   8.3398
    11.7429  11.7622  13.1588  13.1860

          k = 0.0000-1.6794-0.5107 (  1544 PWs)   bands (ev):

    -0.6958  -0.6932   0.3752   0.3774   2.6599   2.6636   4.1523   4.1599
     4.5116   4.5160   5.3984   5.4042   7.6310   7.6385   8.8688   8.8713
    10.9232  10.9368  13.8753  13.8922

          k =-0.5000 0.0000 0.0000 (  1534 PWs)   bands (ev):

   -10.2935 -10.2838  -5.7367  -5.7316  -5.1974  -5.1883   0.7727   0.7735
     1.5026   1.5044   2.7991   2.8020  10.7180  10.7211  11.8459  11.8531
    13.2964  13.2997  15.4951  15.5028

          k =-0.5000 0.0000-0.5107 (  1556 PWs)   bands (ev):

   -10.1862 -10.1757  -6.9561  -6.9519  -2.3890  -2.3851  -2.2024  -2.2000
     2.5478   2.5569   3.5041   3.5055   9.6227   9.6271  10.5603  10.5645
    14.8124  14.8129  16.5866  16.5982

          k =-0.5000 0.8397 0.0000 (  1562 PWs)   bands (ev):

    -7.6969  -7.6873  -3.2971  -3.2918  -2.7016  -2.6920   2.9892   2.9899
     4.1553   4.1571   5.4425   5.4461  11.0688  11.0748  12.4903  12.4942
    13.5011  13.5063  14.5467  14.5516

          k =-0.5000 0.8397-0.5107 (  1532 PWs)   bands (ev):

    -7.5921  -7.5784  -4.4766  -4.4375  -0.1446  -0.0508   0.2727   0.3598
     5.2474   5.2927   5.9320   6.0702  10.3374  10.5940  11.5855  11.9759
    12.6414  13.4115  14.7401  15.3838

          k =-0.5000-1.6794 0.0000 (  1560 PWs)   bands (ev):

    -0.2838  -0.2787  -0.2752  -0.2678   3.6709   3.6770   3.6828   3.6917
     4.7009   4.7048   4.7101   4.7138   8.1793   8.1810   8.1847   8.1877
    12.3262  12.3363  12.3480  12.3638

          k =-0.5000-1.6794-0.5107 (  1544 PWs)   bands (ev):

    -0.3112  -0.3099  -0.1119  -0.1102   2.6547   2.6574   3.5891   3.5924
     4.9629   4.9660   6.7108   6.7148   7.1988   7.2071   7.8432   7.8440
    11.3697  11.3818  13.2917  13.3072

     the Fermi energy is    12.2856 ev

!    total energy              =     -89.27531678 Ry
     Harris-Foulkes estimate   =     -89.27547192 Ry
     estimated scf accuracy    <       0.00019986 Ry

     The total energy is the sum of the following terms:

     one-electron contribution =       5.61629716 Ry
     hartree contribution      =      18.13983435 Ry
     xc contribution           =     -27.51094485 Ry
     ewald contribution        =     -85.51957905 Ry
     smearing contrib. (-TS)   =      -0.00092439 Ry

     convergence has been achieved in   5 iterations

     Forces acting on atoms (cartesian axes, Ry/au):

     atom    1 type  1   force =     0.01221954   -0.02920621   -0.03936201
     atom    2 type  1   force =     0.01220902    0.02935749    0.03934628
     atom    3 type  1   force =     0.01205530   -0.02942795    0.03993039
     atom    4 type  1   force =     0.01215995    0.02963118   -0.03982119
     atom    5 type  1   force =    -0.01182511    0.03120538    0.03958888
     atom    6 type  1   force =    -0.01175137   -0.03140471   -0.03958343
     atom    7 type  1   force =    -0.01247970    0.03229925   -0.03920243
     atom    8 type  1   force =    -0.01258764   -0.03245443    0.03910352

     Total force =     0.145523     Total SCF correction =     0.029804
     SCF correction compared to forces is large: reduce conv_thr to get better values

     number of scf cycles    =   2
     number of bfgs steps    =   1

     energy   old            =     -89.2511033544 Ry
     energy   new            =     -89.2753167775 Ry

     CASE: energy  _new < energy  _old


     WARNING: bfgs curvature condition failed, Theta= 0.885
     new trust radius        =       0.0627517419 bohr
     new conv_thr            =       0.0001996520 Ry


ATOMIC_POSITIONS (crystal)
C             0.1066253835        0.0570797077        0.0989007229
C             0.1066187231        0.4428978124        0.4010874018
C             0.6065568795        0.0556540915        0.9011476684
C             0.6065651591        0.4443211286        0.5988649216
C             0.8934779621        0.9439094823        0.9011192616
C             0.8934805894        0.5561095627        0.5988948007
C             0.3933392765        0.9444434254        0.0989234397
C             0.3933360268        0.5555847893        0.4010617834


     NEW-OLD atomic charge density approx. for the potential

     total cpu time spent up to now is        8.5 secs

     Self-consistent Calculation

     iteration #  1     ecut=    40.00 Ry     beta= 0.50
     Davidson diagonalization with overlap
     c_bands:  1 eigenvalues not converged
     ethr =  1.00E-06,  avg # of iterations =  8.8

     total cpu time spent up to now is       10.4 secs

     total energy              =     -89.29742269 Ry
     Harris-Foulkes estimate   =     -89.30164020 Ry
     estimated scf accuracy    <       0.00681013 Ry

     iteration #  2     ecut=    40.00 Ry     beta= 0.50
     Davidson diagonalization with overlap
     ethr =  2.13E-05,  avg # of iterations =  4.2

     total cpu time spent up to now is       11.3 secs

     total energy              =     -89.29442339 Ry
     Harris-Foulkes estimate   =     -89.30541153 Ry
     estimated scf accuracy    <       0.05232032 Ry

     iteration #  3     ecut=    40.00 Ry     beta= 0.50
     Davidson diagonalization with overlap
     ethr =  2.13E-05,  avg # of iterations =  3.9

     total cpu time spent up to now is       12.1 secs

     total energy              =     -89.29977660 Ry
     Harris-Foulkes estimate   =     -89.30087069 Ry
     estimated scf accuracy    <       0.00478016 Ry

     iteration #  4     ecut=    40.00 Ry     beta= 0.50
     Davidson diagonalization with overlap
     ethr =  1.49E-05,  avg # of iterations =  2.2

     total cpu time spent up to now is       12.7 secs

     total energy              =     -89.30018194 Ry
     Harris-Foulkes estimate   =     -89.30051536 Ry
     estimated scf accuracy    <       0.00130873 Ry

     iteration #  5     ecut=    40.00 Ry     beta= 0.50
     Davidson diagonalization with overlap
     ethr =  4.09E-06,  avg # of iterations =  2.6

     total cpu time spent up to now is       13.3 secs

     total energy              =     -89.30035542 Ry
     Harris-Foulkes estimate   =     -89.30045375 Ry
     estimated scf accuracy    <       0.00046868 Ry

     iteration #  6     ecut=    40.00 Ry     beta= 0.50
     Davidson diagonalization with overlap
     ethr =  1.46E-06,  avg # of iterations =  2.2

     total cpu time spent up to now is       13.9 secs

     End of self-consistent calculation

          k = 0.0000 0.0000 0.0000 (  1551 PWs)   bands (ev):

   -10.8042  -9.0513  -6.8431  -6.8029  -3.9124  -3.0042  -2.4745  -0.8965
     0.8395   3.7874   4.5439   4.7091   8.0772  10.1145  10.1992  11.8970
    13.1877  15.6487  16.6072  16.9445

          k = 0.0000 0.0000-0.5107 (  1550 PWs)   bands (ev):

   -10.1565 -10.1505  -5.9237  -5.9186  -5.1320  -5.1299   0.9774   0.9783
     1.4606   1.4617   2.6813   2.6832  10.5411  10.5477  11.6637  11.6697
    13.4973  13.4996  15.0560  15.0620

          k = 0.0000 0.8397 0.0000 (  1528 PWs)   bands (ev):

    -8.2044  -6.4365  -4.3817  -4.3191  -1.5205  -0.6466  -0.0945   1.8437
     3.6617   6.0818   7.1321   7.1643   8.7005  11.3046  11.5416  12.5136
    13.2444  13.7470  13.8503  14.6389

          k = 0.0000 0.8397-0.5107 (  1540 PWs)   bands (ev):

    -7.5611  -7.5550  -3.4635  -3.4584  -2.6465  -2.6441   3.2250   3.2266
     4.0488   4.0510   5.3001   5.3013  11.2173  11.2225  12.1262  12.1370
    13.8471  13.8514  14.5292  14.5407

          k = 0.0000-1.6794 0.0000 (  1558 PWs)   bands (ev):

    -0.7720  -0.7684   0.9482   0.9507   2.7913   2.7971   3.1895   3.1945
     5.1373   5.1413   6.1890   6.1926   6.5324   6.5338   8.0035   8.0117
    11.6954  11.7078  13.2577  13.2686

          k = 0.0000-1.6794-0.5107 (  1544 PWs)   bands (ev):

    -0.6084  -0.6040   0.5653   0.5674   2.7787   2.7856   4.0075   4.0162
     4.6178   4.6273   5.1299   5.1394   7.6061   7.6225   8.4737   8.4787
    11.0202  11.0348  13.9635  13.9870

          k =-0.5000 0.0000 0.0000 (  1534 PWs)   bands (ev):

   -10.1649 -10.1590  -5.9984  -5.9951  -4.9524  -4.9477   0.4371   0.4418
     1.6377   1.6403   2.9282   2.9332  10.4927  10.4981  12.0670  12.0752
    12.9259  12.9339  16.0696  16.0782

          k =-0.5000 0.0000-0.5107 (  1556 PWs)   bands (ev):

   -10.0472 -10.0412  -7.0299  -7.0269  -2.3203  -2.3163  -2.3047  -2.2994
     2.5871   2.5891   3.4222   3.4246   9.7310   9.7394  10.3864  10.3901
    14.8347  14.8374  16.3967  16.4093

          k =-0.5000 0.8397 0.0000 (  1562 PWs)   bands (ev):

    -7.5679  -7.5620  -3.5555  -3.5523  -2.4443  -2.4395   2.6746   2.6796
     4.2829   4.2850   5.5475   5.5521  11.0313  11.0371  12.5004  12.5083
    13.4629  13.4663  14.3032  14.3102

          k =-0.5000 0.8397-0.5107 (  1532 PWs)   bands (ev):

    -7.4529  -7.4443  -4.5420  -4.5151  -0.0388   0.0244   0.1647   0.2259
     5.2847   5.3269   5.8496   5.9627  10.4429  10.6130  11.6377  11.8889
    12.5555  13.2709  14.6733  15.1219

          k =-0.5000-1.6794 0.0000 (  1560 PWs)   bands (ev):

    -0.1533  -0.1507  -0.1472  -0.1442   3.6538   3.6577   3.6589   3.6627
     4.7560   4.7613   4.7655   4.7687   7.8593   7.8603   7.8665   7.8712
    12.3580  12.3749  12.3783  12.3843

          k =-0.5000-1.6794-0.5107 (  1544 PWs)   bands (ev):

    -0.1727  -0.1712   0.0113   0.0154   2.6985   2.7019   3.4507   3.4529
     5.2358   5.2385   6.6485   6.6546   6.9279   6.9480   7.4639   7.4665
    11.4425  11.4551  13.1020  13.1269

     the Fermi energy is    12.2529 ev

!    total energy              =     -89.30039941 Ry
     Harris-Foulkes estimate   =     -89.30040895 Ry
     estimated scf accuracy    <       0.00002039 Ry

     The total energy is the sum of the following terms:

     one-electron contribution =       6.39780491 Ry
     hartree contribution      =      17.73304604 Ry
     xc contribution           =     -27.50081040 Ry
     ewald contribution        =     -85.92986563 Ry
     smearing contrib. (-TS)   =      -0.00057432 Ry

     convergence has been achieved in   6 iterations

     Forces acting on atoms (cartesian axes, Ry/au):

     atom    1 type  1   force =    -0.00158345   -0.02858838   -0.04438400
     atom    2 type  1   force =    -0.00144587    0.02879579    0.04436561
     atom    3 type  1   force =    -0.00149215   -0.02880528    0.04512977
     atom    4 type  1   force =    -0.00137579    0.02906801   -0.04514201
     atom    5 type  1   force =     0.00172518    0.02886690    0.04463600
     atom    6 type  1   force =     0.00164210   -0.02912393   -0.04465177
     atom    7 type  1   force =     0.00133703    0.02914380   -0.04449904
     atom    8 type  1   force =     0.00119296   -0.02935692    0.04454544

     Total force =     0.150648     Total SCF correction =     0.009203

     number of scf cycles    =   3
     number of bfgs steps    =   2

     energy   old            =     -89.2753167775 Ry
     energy   new            =     -89.3003994080 Ry

     CASE: energy  _new < energy  _old

     new trust radius        =       0.0941276129 bohr
     new conv_thr            =       0.0002257101 Ry


ATOMIC_POSITIONS (crystal)
C             0.1087489649        0.0410949912        0.0919687051
C             0.1087433697        0.4589158512        0.4080128036
C             0.6086459043        0.0389732417        0.9081500001
C             0.6086659747        0.4610474386        0.5918723934
C             0.8914216122        0.9606436697        0.9080781229
C             0.8914257127        0.5393284908        0.5919419731
C             0.3911811379        0.9615980649        0.0920044522
C             0.3911673235        0.5383982518        0.4079715495


     NEW-OLD atomic charge density approx. for the potential

     total cpu time spent up to now is       13.9 secs

     Self-consistent Calculation

     iteration #  1     ecut=    40.00 Ry     beta= 0.50
     Davidson diagonalization with overlap
     ethr =  1.00E-06,  avg # of iterations =  9.8

     total cpu time spent up to now is       16.1 secs

     total energy              =     -89.34249293 Ry
     Harris-Foulkes estimate   =     -89.34546169 Ry
     estimated scf accuracy    <       0.00619266 Ry

     iteration #  2     ecut=    40.00 Ry     beta= 0.50
     Davidson diagonalization with overlap
     ethr =  1.94E-05,  avg # of iterations =  3.4

     total cpu time spent up to now is       16.9 secs

     total energy              =     -89.34129001 Ry
     Harris-Foulkes estimate   =     -89.34536216 Ry
     estimated scf accuracy    <       0.01341873 Ry

     iteration #  3     ecut=    40.00 Ry     beta= 0.50
     Davidson diagonalization with overlap
     ethr =  1.94E-05,  avg # of iterations =  3.0

     total cpu time spent up to now is       17.6 secs

     total energy              =     -89.34339715 Ry
     Harris-Foulkes estimate   =     -89.34481961 Ry
     estimated scf accuracy    <       0.00780461 Ry

     iteration #  4     ecut=    40.00 Ry     beta= 0.50
     Davidson diagonalization with overlap
     ethr =  1.94E-05,  avg # of iterations =  1.8

     total cpu time spent up to now is       18.1 secs

     total energy              =     -89.34401570 Ry
     Harris-Foulkes estimate   =     -89.34409613 Ry
     estimated scf accuracy    <       0.00026888 Ry

     iteration #  5     ecut=    40.00 Ry     beta= 0.50
     Davidson diagonalization with overlap
     ethr =  8.40E-07,  avg # of iterations =  3.3

     total cpu time spent up to now is       18.9 secs

     total energy              =     -89.34406873 Ry
     Harris-Foulkes estimate   =     -89.34418889 Ry
     estimated scf accuracy    <       0.00070902 Ry

     iteration #  6     ecut=    40.00 Ry     beta= 0.50
     Davidson diagonalization with overlap
     ethr =  8.40E-07,  avg # of iterations =  2.6

     total cpu time spent up to now is       19.5 secs

     End of self-consistent calculation

          k = 0.0000 0.0000 0.0000 (  1551 PWs)   bands (ev):

   -10.6665  -8.7135  -7.2226  -6.7278  -4.2633  -3.4831  -1.6656  -0.9303
     0.8161   3.1437   4.7076   5.3126   8.0722   9.5002  10.1279  12.4931
    12.7349  14.6597  16.5486  17.4772

          k = 0.0000 0.0000-0.5107 (  1550 PWs)   bands (ev):

    -9.9933  -9.9847  -5.8906  -5.8870  -5.4066  -5.4038   1.1375   1.1394
     1.4280   1.4304   2.6846   2.6857  10.4854  10.4893  11.2144  11.2266
    13.5212  13.5312  15.1127  15.1197

          k = 0.0000 0.8397 0.0000 (  1528 PWs)   bands (ev):

    -8.0687  -6.0984  -4.7605  -4.2339  -1.8624  -1.1095   0.7183   1.7668
     3.6378   5.4156   7.3029   7.7323   8.7562  11.0301  11.6431  12.3036
    13.4596  13.5638  13.7270  14.3623

          k = 0.0000 0.8397-0.5107 (  1540 PWs)   bands (ev):

    -7.4026  -7.3940  -3.4223  -3.4186  -2.9201  -2.9170   3.6501   3.6525
     3.6914   3.6954   5.3148   5.3165  11.3785  11.3842  11.9699  11.9861
    13.7321  13.7373  14.2659  14.2816

          k = 0.0000-1.6794 0.0000 (  1558 PWs)   bands (ev):

    -0.6609  -0.6574   1.3218   1.3299   2.8918   2.8956   2.8980   2.9105
     4.8616   4.8638   5.9433   5.9492   6.7907   6.7964   7.5327   7.5438
    11.5402  11.5621  13.4373  13.4489

          k = 0.0000-1.6794-0.5107 (  1544 PWs)   bands (ev):

    -0.5006  -0.4964   0.8340   0.8391   2.9217   2.9281   3.8125   3.8275
     4.5808   4.5914   4.7393   4.7518   7.7397   7.7584   7.9231   7.9272
    11.1143  11.1371  13.5141  13.5584

          k =-0.5000 0.0000 0.0000 (  1534 PWs)   bands (ev):

    -9.9860  -9.9766  -6.3833  -6.3785  -4.6405  -4.6322  -0.0401  -0.0324
     1.7938   1.7975   3.2231   3.2318  10.0837  10.0929  12.4043  12.4201
    12.4623  12.4777  16.9615  16.9765

          k =-0.5000 0.0000-0.5107 (  1556 PWs)   bands (ev):

    -9.8501  -9.8404  -7.2074  -7.2030  -2.4935  -2.4858  -2.1907  -2.1825
     2.6317   2.6344   3.4050   3.4091   9.9182   9.9347  10.0166  10.0192
    14.8779  14.8847  16.0852  16.1089

          k =-0.5000 0.8397 0.0000 (  1562 PWs)   bands (ev):

    -7.3908  -7.3814  -3.9366  -3.9318  -2.1175  -2.1090   2.2237   2.2322
     4.4448   4.4483   5.7818   5.7895  10.9658  10.9747  12.3985  12.4111
    13.3448  13.3517  14.0770  14.0937

          k =-0.5000 0.8397-0.5107 (  1532 PWs)   bands (ev):

    -7.2578  -7.2477  -4.7109  -4.6970  -0.0009   0.0334   0.1061   0.1371
     5.3344   5.3680   5.8273   5.8999  10.5922  10.6887  11.5285  11.6413
    12.5493  13.0772  14.4858  14.7393

          k =-0.5000-1.6794 0.0000 (  1560 PWs)   bands (ev):

     0.0179   0.0200   0.0267   0.0304   3.4544   3.4620   3.4627   3.4679
     4.9372   4.9468   4.9554   4.9661   7.4312   7.4343   7.4438   7.4534
    12.3333  12.3547  12.3606  12.3746

          k =-0.5000-1.6794-0.5107 (  1544 PWs)   bands (ev):

     0.0236   0.0251   0.1699   0.1774   2.7018   2.7047   3.1759   3.1802
     5.6716   5.6753   6.4940   6.5042   6.6367   6.6618   6.9177   6.9232
    11.5689  11.5885  12.7006  12.7405

     the Fermi energy is    12.2751 ev

!    total energy              =     -89.34410191 Ry
     Harris-Foulkes estimate   =     -89.34413924 Ry
     estimated scf accuracy    <       0.00004361 Ry

     The total energy is the sum of the following terms:

     one-electron contribution =       7.47098280 Ry
     hartree contribution      =      17.17863378 Ry
     xc contribution           =     -27.51210608 Ry
     ewald contribution        =     -86.47893314 Ry
     smearing contrib. (-TS)   =      -0.00267926 Ry

     convergence has been achieved in   6 iterations

     Forces acting on atoms (cartesian axes, Ry/au):

     atom    1 type  1   force =    -0.03482904   -0.02333719   -0.07611397
     atom    2 type  1   force =    -0.03479170    0.02348552    0.07608859
     atom    3 type  1   force =    -0.03572645   -0.02376734    0.07806808
     atom    4 type  1   force =    -0.03555798    0.02392064   -0.07805416
     atom    5 type  1   force =     0.03525846    0.02445418    0.07751783
     atom    6 type  1   force =     0.03510499   -0.02463013   -0.07746381
     atom    7 type  1   force =     0.03525929    0.02475033   -0.07806563
     atom    8 type  1   force =     0.03528243   -0.02487602    0.07802307

     Total force =     0.250117     Total SCF correction =     0.016360

     number of scf cycles    =   4
     number of bfgs steps    =   3

     energy   old            =     -89.3003994080 Ry
     energy   new            =     -89.3441019082 Ry

     CASE: energy  _new < energy  _old


     WARNING: bfgs curvature condition failed, Theta= 0.017
     new trust radius        =       0.1411914193 bohr
     new conv_thr            =       0.0003903404 Ry


ATOMIC_POSITIONS (crystal)
C             0.1119316718        0.0171473165        0.0815661680
C             0.1119273815        0.4829129595        0.4184054185
C             0.6117757680        0.0139808351        0.9186583936
C             0.6118135157        0.4861073145        0.5813788892
C             0.8883402497        0.9857248216        0.9185215956
C             0.8883467390        0.5141776577        0.5815076316
C             0.3879470725        0.9873133602        0.0816206393
C             0.3879176017        0.5126357349        0.4183412642


     NEW-OLD atomic charge density approx. for the potential

     total cpu time spent up to now is       19.6 secs

     Self-consistent Calculation

     iteration #  1     ecut=    40.00 Ry     beta= 0.50
     Davidson diagonalization with overlap
     ethr =  1.00E-06,  avg # of iterations = 11.8

     total cpu time spent up to now is       22.5 secs

     total energy              =     -89.40631079 Ry
     Harris-Foulkes estimate   =     -89.41113698 Ry
     estimated scf accuracy    <       0.00959848 Ry

     iteration #  2     ecut=    40.00 Ry     beta= 0.50
     Davidson diagonalization with overlap
     ethr =  3.00E-05,  avg # of iterations =  3.5

     total cpu time spent up to now is       23.4 secs

     total energy              =     -89.40272306 Ry
     Harris-Foulkes estimate   =     -89.41394285 Ry
     estimated scf accuracy    <       0.04952266 Ry

     iteration #  3     ecut=    40.00 Ry     beta= 0.50
     Davidson diagonalization with overlap
     ethr =  3.00E-05,  avg # of iterations =  3.6

     total cpu time spent up to now is       24.5 secs

     total energy              =     -89.40896400 Ry
     Harris-Foulkes estimate   =     -89.41002805 Ry
     estimated scf accuracy    <       0.00649649 Ry

     iteration #  4     ecut=    40.00 Ry     beta= 0.50
     Davidson diagonalization with overlap
     ethr =  2.03E-05,  avg # of iterations =  1.7

     total cpu time spent up to now is       25.1 secs

     total energy              =     -89.40937619 Ry
     Harris-Foulkes estimate   =     -89.40960482 Ry
     estimated scf accuracy    <       0.00091616 Ry

     iteration #  5     ecut=    40.00 Ry     beta= 0.50
     Davidson diagonalization with overlap
     ethr =  2.86E-06,  avg # of iterations =  3.2

     total cpu time spent up to now is       26.0 secs

     total energy              =     -89.40956084 Ry
     Harris-Foulkes estimate   =     -89.40961955 Ry
     estimated scf accuracy    <       0.00050014 Ry

     iteration #  6     ecut=    40.00 Ry     beta= 0.50
     Davidson diagonalization with overlap
     ethr =  1.56E-06,  avg # of iterations =  1.8

     total cpu time spent up to now is       26.6 secs

     End of self-consistent calculation

          k = 0.0000 0.0000 0.0000 (  1551 PWs)   bands (ev):

   -10.5640  -8.3071  -7.7892  -6.7513  -4.7887  -4.1929  -0.9598  -0.5325
     0.7183   2.2395   4.8100   6.3109   8.0130   8.5673   9.9219  12.0935
    13.3697  13.4261  16.4901  16.8317

          k = 0.0000 0.0000-0.5107 (  1550 PWs)   bands (ev):

    -9.8816  -9.8626  -6.0036  -6.0008  -5.8033  -5.7995   0.6788   0.6792
     2.1744   2.1766   2.5966   2.6056  10.3201  10.3210  10.3880  10.4017
    13.4297  13.4497  15.4785  15.4851

          k = 0.0000 0.8397 0.0000 (  1528 PWs)   bands (ev):

    -7.9749  -5.7018  -5.3285  -4.2480  -2.3769  -1.8005   1.6655   1.8513
     3.5415   4.4890   7.4162   8.6446   8.8000  10.4345  11.6487  11.9171
    13.3843  13.5065  13.6320  13.8572

          k = 0.0000 0.8397-0.5107 (  1540 PWs)   bands (ev):

    -7.3058  -7.2872  -3.5287  -3.5260  -3.3168  -3.3127   3.1523   3.1536
     4.3839   4.3882   5.2442   5.2550  11.4625  11.4719  11.6615  11.6793
    13.4839  13.4890  13.6319  13.6405

          k = 0.0000-1.6794 0.0000 (  1558 PWs)   bands (ev):

    -0.6313  -0.6255   1.7805   1.7864   2.4083   2.4182   2.8875   2.8985
     4.5238   4.5266   5.0224   5.0298   6.8494   6.8653   7.6073   7.6149
    11.1516  11.1947  13.7008  13.7303

          k = 0.0000-1.6794-0.5107 (  1544 PWs)   bands (ev):

    -0.4864  -0.4815   1.0636   1.0759   3.0605   3.0653   3.5768   3.6075
     4.1067   4.1220   4.1679   4.1784   7.1245   7.1314   8.1784   8.1968
    11.0140  11.0544  13.2452  13.2938

          k =-0.5000 0.0000 0.0000 (  1534 PWs)   bands (ev):

    -9.8347  -9.8136  -6.9604  -6.9496  -4.3097  -4.2993  -0.7470  -0.7322
     1.8514   1.8603   3.8520   3.8628   9.3524   9.3562  11.9546  11.9847
    12.8214  12.8490  17.0546  17.0824

          k =-0.5000 0.0000-0.5107 (  1556 PWs)   bands (ev):

    -9.6722  -9.6489  -7.5825  -7.5732  -2.7345  -2.7195  -2.2090  -2.1971
     2.6133   2.6261   3.6000   3.6038   9.3613   9.3647  10.1377  10.1653
    14.8661  14.8845  15.6077  15.6422

          k =-0.5000 0.8397 0.0000 (  1562 PWs)   bands (ev):

    -7.2486  -7.2275  -4.5110  -4.5001  -1.7804  -1.7695   1.5452   1.5609
     4.5365   4.5456   6.2900   6.3013  10.7505  10.7604  12.0171  12.0317
    13.0465  13.0645  13.9713  13.9948

          k =-0.5000 0.8397-0.5107 (  1532 PWs)   bands (ev):

    -7.0916  -7.0684  -5.0837  -5.0739  -0.2463  -0.2290   0.1205   0.1337
     5.3307   5.3490   6.0071   6.0281  10.7470  10.7850  11.0557  11.0835
    12.6531  12.8214  14.0624  14.1374

          k =-0.5000-1.6794 0.0000 (  1560 PWs)   bands (ev):

     0.1245   0.1361   0.1475   0.1522   2.9949   3.0156   3.0179   3.0230
     5.1109   5.1287   5.1498   5.1582   6.9321   6.9505   6.9636   6.9780
    12.0589  12.1046  12.1077  12.1380

          k =-0.5000-1.6794-0.5107 (  1544 PWs)   bands (ev):

     0.1840   0.1921   0.2467   0.2545   2.5593   2.5632   2.6949   2.7043
     5.9685   5.9867   6.0380   6.0648   6.3017   6.3290   6.5392   6.5520
    11.6943  11.7338  12.0453  12.0923

     the Fermi energy is    11.9198 ev

!    total energy              =     -89.40958945 Ry
     Harris-Foulkes estimate   =     -89.40961120 Ry
     estimated scf accuracy    <       0.00003102 Ry

     The total energy is the sum of the following terms:

     one-electron contribution =       8.67663372 Ry
     hartree contribution      =      16.47197746 Ry
     xc contribution           =     -27.53766625 Ry
     ewald contribution        =     -87.01904337 Ry
     smearing contrib. (-TS)   =      -0.00149100 Ry

     convergence has been achieved in   6 iterations

     Forces acting on atoms (cartesian axes, Ry/au):

     atom    1 type  1   force =    -0.05576486   -0.00412742   -0.07068865
     atom    2 type  1   force =    -0.05608417    0.00401585    0.07077471
     atom    3 type  1   force =    -0.05630255   -0.00535865    0.07158926
     atom    4 type  1   force =    -0.05614350    0.00527248   -0.07166186
     atom    5 type  1   force =     0.05703012    0.00647134    0.07206575
     atom    6 type  1   force =     0.05693348   -0.00636944   -0.07225477
     atom    7 type  1   force =     0.05515485    0.00764613   -0.07202097
     atom    8 type  1   force =     0.05517662   -0.00755030    0.07219653

     Total force =     0.257925     Total SCF correction =     0.013148

     number of scf cycles    =   5
     number of bfgs steps    =   4

     energy   old            =     -89.3441019082 Ry
     energy   new            =     -89.4095894461 Ry

     CASE: energy  _new < energy  _old

     new trust radius        =       0.2000000000 bohr
     new conv_thr            =       0.0003612738 Ry


ATOMIC_POSITIONS (crystal)
C             0.1156048417       -0.0096375278        0.0658786579
C             0.1154965056        0.5095746396        0.4340971724
C             0.6153054624       -0.0148673624        0.9343491470
C             0.6153696939        0.5148628271        0.5657338884
C             0.8850511690        1.0167847021        0.9343231596
C             0.8851123587        0.4832224541        0.5656880038
C             0.3840484445        1.0206583529        0.0660531613
C             0.3840115243        0.4794019144        0.4338768096


     NEW-OLD atomic charge density approx. for the potential

     total cpu time spent up to now is       26.6 secs

     Self-consistent Calculation

     iteration #  1     ecut=    40.00 Ry     beta= 0.50
     Davidson diagonalization with overlap
     ethr =  1.00E-06,  avg # of iterations = 10.4

     total cpu time spent up to now is       30.0 secs

     total energy              =     -89.45318203 Ry
     Harris-Foulkes estimate   =     -89.45685832 Ry
     estimated scf accuracy    <       0.01029122 Ry

     iteration #  2     ecut=    40.00 Ry     beta= 0.50
     Davidson diagonalization with overlap
     ethr =  3.22E-05,  avg # of iterations =  3.0

     total cpu time spent up to now is       31.0 secs

     total energy              =     -89.45067281 Ry
     Harris-Foulkes estimate   =     -89.45794086 Ry
     estimated scf accuracy    <       0.02698721 Ry

     iteration #  3     ecut=    40.00 Ry     beta= 0.50
     Davidson diagonalization with overlap
     ethr =  3.22E-05,  avg # of iterations =  3.2

     total cpu time spent up to now is       32.1 secs

     total energy              =     -89.45452915 Ry
     Harris-Foulkes estimate   =     -89.45662296 Ry
     estimated scf accuracy    <       0.01250311 Ry

     iteration #  4     ecut=    40.00 Ry     beta= 0.50
     Davidson diagonalization with overlap
     ethr =  3.22E-05,  avg # of iterations =  1.3

     total cpu time spent up to now is       32.8 secs

     total energy              =     -89.45531113 Ry
     Harris-Foulkes estimate   =     -89.45574690 Ry
     estimated scf accuracy    <       0.00152006 Ry

     iteration #  5     ecut=    40.00 Ry     beta= 0.50
     Davidson diagonalization with overlap
     ethr =  4.75E-06,  avg # of iterations =  3.4

     total cpu time spent up to now is       33.9 secs

     total energy              =     -89.45557367 Ry
     Harris-Foulkes estimate   =     -89.45586859 Ry
     estimated scf accuracy    <       0.00170773 Ry

     iteration #  6     ecut=    40.00 Ry     beta= 0.50
     Davidson diagonalization with overlap
     ethr =  4.75E-06,  avg # of iterations =  2.0

     total cpu time spent up to now is       34.7 secs

     End of self-consistent calculation

          k = 0.0000 0.0000 0.0000 (  1551 PWs)   bands (ev):

   -10.5588  -8.5607  -7.8225  -7.0164  -5.5797  -5.0553  -0.9589   0.5616
     0.9963   1.1318   4.8697   7.3041   7.9248   7.9512   9.4010  11.1502
    11.8881  15.0290  16.1337  16.4683

          k = 0.0000 0.0000-0.5107 (  1550 PWs)   bands (ev):

    -9.9188  -9.8837  -6.4203  -6.4002  -6.2534  -6.2366   0.1208   0.1368
     2.4350   2.4594   3.3191   3.3301   9.2055   9.2177   9.8629   9.8819
    13.3570  13.3957  16.5228  16.5426

          k = 0.0000 0.8397 0.0000 (  1528 PWs)   bands (ev):

    -7.9901  -6.1070  -5.2445  -4.5123  -3.1620  -2.6438   1.5622   3.3704
     3.3793   3.3988   7.5114   8.8451   9.4532  10.0480  11.0871  11.6367
    13.0386  13.1751  13.2245  13.3787

          k = 0.0000 0.8397-0.5107 (  1540 PWs)   bands (ev):

    -7.3739  -7.3394  -3.9474  -3.9272  -3.7678  -3.7506   2.5158   2.5333
     5.1182   5.1457   5.4727   5.4859  11.0019  11.0224  11.3582  11.3785
    12.8681  12.8959  13.0749  13.0888

          k = 0.0000-1.6794 0.0000 (  1558 PWs)   bands (ev):

    -0.7852  -0.7616   1.6861   1.7172   2.1119   2.1185   2.7761   2.7898
     3.6793   3.6914   4.3259   4.3309   6.0772   6.1130   8.6296   8.6556
    10.5793  10.6918  13.5468  13.6513

          k = 0.0000-1.6794-0.5107 (  1544 PWs)   bands (ev):

    -0.6747  -0.6557   1.0618   1.0866   2.8502   2.8716   3.1188   3.1328
     3.5673   3.5876   3.5969   3.6289   6.2241   6.2499   8.9589   8.9865
    10.6222  10.6821  13.3738  13.4441

          k =-0.5000 0.0000 0.0000 (  1534 PWs)   bands (ev):

    -9.7840  -9.7352  -7.7608  -7.7162  -4.0358  -3.9956  -1.6769  -1.6316
     1.7307   1.7592   5.0941   5.1252   8.2136   8.2446  11.5805  11.6589
    13.1833  13.2517  16.1711  16.2317

          k =-0.5000 0.0000-0.5107 (  1556 PWs)   bands (ev):

    -9.5768  -9.5265  -8.2260  -8.1942  -3.0558  -3.0189  -2.5092  -2.4703
     2.5775   2.6112   4.1289   4.1403   8.5371   8.5642  10.4532  10.5111
    14.7286  14.7890  14.8438  14.9163

          k =-0.5000 0.8397 0.0000 (  1562 PWs)   bands (ev):

    -7.2191  -7.1700  -5.3133  -5.2683  -1.5285  -1.4863   0.6411   0.6891
     4.4725   4.5018   7.3557   7.3893  10.1711  10.1965  11.5359  11.5980
    12.6675  12.7132  13.5063  13.5547

          k =-0.5000 0.8397-0.5107 (  1532 PWs)   bands (ev):

    -7.0232  -6.9729  -5.7348  -5.7023  -0.5981  -0.5593  -0.1568  -0.1166
     5.3081   5.3446   6.5343   6.5516  10.2991  10.3269  10.9161  10.9952
    12.5650  12.7020  13.3739  13.4733

          k =-0.5000-1.6794 0.0000 (  1560 PWs)   bands (ev):

     0.0493   0.0786   0.1074   0.1240   2.2251   2.2653   2.2895   2.3013
     4.9382   4.9983   5.0298   5.0429   6.7746   6.8349   6.8464   6.8615
    11.5175  11.5991  11.6508  11.6851

          k =-0.5000-1.6794-0.5107 (  1544 PWs)   bands (ev):

     0.1301   0.1330   0.1972   0.2239   1.9677   2.0049   2.0766   2.0985
     5.1844   5.2428   5.3073   5.3364   6.6459   6.6658   6.8547   6.8681
    11.4015  11.4462  11.6532  11.7354

     the Fermi energy is    11.5163 ev

!    total energy              =     -89.45556212 Ry
     Harris-Foulkes estimate   =     -89.45577215 Ry
     estimated scf accuracy    <       0.00024188 Ry

     The total energy is the sum of the following terms:

     one-electron contribution =      10.04458023 Ry
     hartree contribution      =      15.59697394 Ry
     xc contribution           =     -27.59460175 Ry
     ewald contribution        =     -87.50001819 Ry
     smearing contrib. (-TS)   =      -0.00249634 Ry

     convergence has been achieved in   6 iterations

     Forces acting on atoms (cartesian axes, Ry/au):

     atom    1 type  1   force =    -0.06268932    0.01716926   -0.02118882
     atom    2 type  1   force =    -0.06538797   -0.01723153    0.02239739
     atom    3 type  1   force =    -0.06390146    0.01605739    0.02161539
     atom    4 type  1   force =    -0.06358069   -0.01621529   -0.02306500
     atom    5 type  1   force =     0.06572025   -0.01030275    0.02009202
     atom    6 type  1   force =     0.06671144    0.01065836   -0.02133880
     atom    7 type  1   force =     0.06081736   -0.00912601   -0.01995842
     atom    8 type  1   force =     0.06231039    0.00899055    0.02144625

     Total force =     0.194540     Total SCF correction =     0.033573
     SCF correction compared to forces is large: reduce conv_thr to get better values

     number of scf cycles    =   6
     number of bfgs steps    =   5

     energy   old            =     -89.4095894461 Ry
     energy   new            =     -89.4555621177 Ry

     CASE: energy  _new < energy  _old

     new trust radius        =       0.0226374034 bohr
     new conv_thr            =       0.0003335572 Ry


ATOMIC_POSITIONS (crystal)
C             0.1144712267       -0.0046820523        0.0656177929
C             0.1140689937        0.5045227515        0.4344698223
C             0.6139639978       -0.0104107039        0.9345926953
C             0.6140515068        0.5102684182        0.5653943944
C             0.8865402080        1.0157229240        0.9344748842
C             0.8867406085        0.4844778085        0.5654311786
C             0.3850236893        1.0207800892        0.0659802411
C             0.3851397691        0.4793207648        0.4340389912


     NEW-OLD atomic charge density approx. for the potential

     total cpu time spent up to now is       34.8 secs

     Self-consistent Calculation

     iteration #  1     ecut=    40.00 Ry     beta= 0.50
     Davidson diagonalization with overlap
     ethr =  1.00E-06,  avg # of iterations =  7.4

     total cpu time spent up to now is       37.4 secs

     total energy              =     -89.45632260 Ry
     Harris-Foulkes estimate   =     -89.46492166 Ry
     estimated scf accuracy    <       0.01236511 Ry

     iteration #  2     ecut=    40.00 Ry     beta= 0.50
     Davidson diagonalization with overlap
     ethr =  3.86E-05,  avg # of iterations =  3.8

     total cpu time spent up to now is       38.9 secs

     total energy              =     -89.44875241 Ry
     Harris-Foulkes estimate   =     -89.48063053 Ry
     estimated scf accuracy    <       0.17075089 Ry

     iteration #  3     ecut=    40.00 Ry     beta= 0.50
     Davidson diagonalization with overlap
     ethr =  3.86E-05,  avg # of iterations =  3.7

     total cpu time spent up to now is       40.4 secs

     total energy              =     -89.46332525 Ry
     Harris-Foulkes estimate   =     -89.46361065 Ry
     estimated scf accuracy    <       0.00095564 Ry

     iteration #  4     ecut=    40.00 Ry     beta= 0.50
     Davidson diagonalization with overlap
     ethr =  2.99E-06,  avg # of iterations =  2.6

     total cpu time spent up to now is       41.5 secs

     total energy              =     -89.46344416 Ry
     Harris-Foulkes estimate   =     -89.46356173 Ry
     estimated scf accuracy    <       0.00051089 Ry

     iteration #  5     ecut=    40.00 Ry     beta= 0.50
     Davidson diagonalization with overlap
     ethr =  1.60E-06,  avg # of iterations =  1.8

     total cpu time spent up to now is       42.4 secs

     End of self-consistent calculation

          k = 0.0000 0.0000 0.0000 (  1551 PWs)   bands (ev):

   -10.5361  -8.5692  -7.6676  -7.1460  -5.7306  -4.8873  -0.9552   0.5668
     0.9521   1.1734   5.0011   7.2717   7.8390   7.9412   9.3107  11.0034
    12.0065  15.2561  16.0048  16.4196

          k = 0.0000 0.0000-0.5107 (  1550 PWs)   bands (ev):

    -9.8964  -9.8540  -6.5564  -6.5364  -6.1218  -6.0983   0.1446   0.1561
     2.4654   2.4994   3.2631   3.2761   9.2873   9.3008   9.7790   9.7928
    13.2535  13.2982  16.7798  16.8156

          k = 0.0000 0.8397 0.0000 (  1528 PWs)   bands (ev):

    -7.9680  -6.1153  -5.0862  -4.6448  -3.3151  -2.4727   1.5623   3.3373
     3.4034   3.4157   7.6477   8.8480   9.4266   9.9351  11.0144  11.6467
    13.0104  13.0218  13.0867  13.5593

          k = 0.0000 0.8397-0.5107 (  1540 PWs)   bands (ev):

    -7.3526  -7.3114  -4.0864  -4.0661  -3.6309  -3.6071   2.5374   2.5511
     5.1449   5.1831   5.4307   5.4423  11.0618  11.0938  11.2860  11.3035
    12.8946  12.9051  12.9180  12.9599

          k = 0.0000-1.6794 0.0000 (  1558 PWs)   bands (ev):

    -0.7711  -0.7411   1.6692   1.7127   2.2490   2.2525   2.6721   2.6833
     3.5827   3.6018   4.4179   4.4271   6.0962   6.1501   8.6213   8.6518
    10.5463  10.7313  13.5044  13.6858

          k = 0.0000-1.6794-0.5107 (  1544 PWs)   bands (ev):

    -0.6533  -0.6431   1.0972   1.1246   2.7741   2.7927   3.1195   3.1329
     3.5011   3.5707   3.6905   3.7245   6.2708   6.2959   8.9565   8.9782
    10.6119  10.6850  13.2644  13.3424

          k =-0.5000 0.0000 0.0000 (  1534 PWs)   bands (ev):

    -9.7631  -9.6987  -7.7802  -7.7239  -4.0489  -3.9911  -1.6525  -1.5860
     1.7241   1.7601   5.0858   5.1351   8.1695   8.1991  11.5802  11.6929
    13.1932  13.2894  16.1638  16.2508

          k =-0.5000 0.0000-0.5107 (  1556 PWs)   bands (ev):

    -9.5442  -9.4755  -8.2597  -8.2206  -3.0919  -3.0447  -2.4527  -2.3900
     2.6067   2.6545   4.0348   4.0545   8.5520   8.6012  10.4632  10.5421
    14.7489  14.8060  14.8354  14.9063

          k =-0.5000 0.8397 0.0000 (  1562 PWs)   bands (ev):

    -7.1993  -7.1347  -5.3326  -5.2759  -1.5411  -1.4801   0.6650   0.7352
     4.4656   4.5032   7.3430   7.3928  10.1471  10.1749  11.4772  11.5588
    12.7231  12.7938  13.5181  13.5779

          k =-0.5000 0.8397-0.5107 (  1532 PWs)   bands (ev):

    -6.9919  -6.9234  -5.7682  -5.7281  -0.6335  -0.5829  -0.1016  -0.0373
     5.3383   5.3886   6.4497   6.4760  10.2718  10.3184  10.8955  10.9984
    12.6532  12.7755  13.3904  13.5020

          k =-0.5000-1.6794 0.0000 (  1560 PWs)   bands (ev):

     0.0589   0.1021   0.1384   0.1475   2.1986   2.2576   2.2775   2.2947
     4.9274   5.0226   5.0573   5.0579   6.7637   6.8399   6.8726   6.8803
    11.4779  11.5805  11.6885  11.7223

          k =-0.5000-1.6794-0.5107 (  1544 PWs)   bands (ev):

     0.1451   0.1660   0.2307   0.2431   1.9542   1.9947   2.0519   2.0725
     5.1918   5.2666   5.3258   5.3497   6.6654   6.7072   6.8404   6.8838
    11.3861  11.4619  11.6365  11.7135

     the Fermi energy is    11.4820 ev

!    total energy              =     -89.46340790 Ry
     Harris-Foulkes estimate   =     -89.46353038 Ry
     estimated scf accuracy    <       0.00013913 Ry

     The total energy is the sum of the following terms:

     one-electron contribution =      10.17760861 Ry
     hartree contribution      =      15.53428223 Ry
     xc contribution           =     -27.59739971 Ry
     ewald contribution        =     -87.57690965 Ry
     smearing contrib. (-TS)   =      -0.00098939 Ry

     convergence has been achieved in   5 iterations

     Forces acting on atoms (cartesian axes, Ry/au):

     atom    1 type  1   force =    -0.04850848    0.01630335   -0.01596726
     atom    2 type  1   force =    -0.04570482   -0.01604489    0.01483950
     atom    3 type  1   force =    -0.04922249    0.01519319    0.01792581
     atom    4 type  1   force =    -0.05055598   -0.01509681   -0.01911513
     atom    5 type  1   force =     0.05174018   -0.00724000    0.01526582
     atom    6 type  1   force =     0.04987299    0.00694824   -0.01417189
     atom    7 type  1   force =     0.04594627   -0.00558869   -0.01530220
     atom    8 type  1   force =     0.04643234    0.00552561    0.01652534

     Total force =     0.148659     Total SCF correction =     0.030225
     SCF correction compared to forces is large: reduce conv_thr to get better values

     number of scf cycles    =   7
     number of bfgs steps    =   6

     energy   old            =     -89.4555621177 Ry
     energy   new            =     -89.4634079040 Ry

     CASE: energy  _new < energy  _old

     new trust radius        =       0.0249011437 bohr
     new conv_thr            =       0.0002587009 Ry


ATOMIC_POSITIONS (crystal)
C             0.1132542318        0.0014766040        0.0654974660
C             0.1131122749        0.4983871098        0.4344643233
C             0.6125732262       -0.0048050776        0.9348823562
C             0.6125078355        0.5046130296        0.5650039069
C             0.8881938245        1.0146552807        0.9345071709
C             0.8882353441        0.4855192246        0.5655306919
C             0.3859670196        1.0210996007        0.0660047499
C             0.3861562434        0.4790542281        0.4341093349


     NEW-OLD atomic charge density approx. for the potential

     total cpu time spent up to now is       42.5 secs

     Self-consistent Calculation

     iteration #  1     ecut=    40.00 Ry     beta= 0.50
     Davidson diagonalization with overlap
     ethr =  1.00E-06,  avg # of iterations =  7.1

     total cpu time spent up to now is       45.4 secs

     total energy              =     -89.46373157 Ry
     Harris-Foulkes estimate   =     -89.47035824 Ry
     estimated scf accuracy    <       0.00952487 Ry

     iteration #  2     ecut=    40.00 Ry     beta= 0.50
     Davidson diagonalization with overlap
     ethr =  2.98E-05,  avg # of iterations =  3.8

     total cpu time spent up to now is       47.1 secs

     total energy              =     -89.45616562 Ry
     Harris-Foulkes estimate   =     -89.48429283 Ry
     estimated scf accuracy    <       0.16343251 Ry

     iteration #  3     ecut=    40.00 Ry     beta= 0.50
     Davidson diagonalization with overlap
     ethr =  2.98E-05,  avg # of iterations =  3.5

     total cpu time spent up to now is       48.7 secs

     total energy              =     -89.46927175 Ry
     Harris-Foulkes estimate   =     -89.46938604 Ry
     estimated scf accuracy    <       0.00029561 Ry

     iteration #  4     ecut=    40.00 Ry     beta= 0.50
     Davidson diagonalization with overlap
     ethr =  9.24E-07,  avg # of iterations =  3.2

     total cpu time spent up to now is       50.2 secs

     total energy              =     -89.46930966 Ry
     Harris-Foulkes estimate   =     -89.46940746 Ry
     estimated scf accuracy    <       0.00042366 Ry

     iteration #  5     ecut=    40.00 Ry     beta= 0.50
     Davidson diagonalization with overlap
     ethr =  9.24E-07,  avg # of iterations =  1.7

     total cpu time spent up to now is       51.2 secs

     End of self-consistent calculation

          k = 0.0000 0.0000 0.0000 (  1551 PWs)   bands (ev):

   -10.5167  -8.5770  -7.5185  -7.2651  -5.8672  -4.7201  -0.9440   0.5686
     0.9017   1.2286   5.1266   7.2475   7.7474   7.9337   9.2251  10.8679
    12.1311  15.4647  15.8850  16.3660

          k = 0.0000 0.0000-0.5107 (  1550 PWs)   bands (ev):

    -9.8844  -9.8217  -6.6754  -6.6673  -5.9927  -5.9590   0.1693   0.1935
     2.4906   2.5382   3.1997   3.2230   9.3728   9.3922   9.6971   9.7091
    13.1511  13.2143  17.0228  17.0686

          k = 0.0000 0.8397 0.0000 (  1528 PWs)   bands (ev):

    -7.9494  -6.1229  -4.9339  -4.7665  -3.4539  -2.3025   1.5702   3.2949
     3.4062   3.4662   7.7775   8.8541   9.4060   9.8192  10.9454  11.6578
    12.8615  12.9316  13.0352  13.7336

          k = 0.0000 0.8397-0.5107 (  1540 PWs)   bands (ev):

    -7.3416  -7.2806  -4.2077  -4.1999  -3.4970  -3.4628   2.5599   2.5879
     5.1650   5.2184   5.3804   5.4015  11.1087  11.1545  11.2239  11.2513
    12.7611  12.7667  12.9326  12.9948

          k = 0.0000-1.6794 0.0000 (  1558 PWs)   bands (ev):

    -0.7635  -0.7157   1.6402   1.7049   2.3242   2.3356   2.6290   2.6358
     3.4680   3.4840   4.5456   4.5607   6.1267   6.2153   8.6059   8.6541
    10.5043  10.7845  13.4216  13.7005

          k = 0.0000-1.6794-0.5107 (  1544 PWs)   bands (ev):

    -0.6420  -0.6207   1.1176   1.1507   2.6850   2.6990   3.0497   3.0742
     3.4959   3.5906   3.8297   3.8758   6.3308   6.3694   8.9480   8.9795
    10.6014  10.6884  13.1582  13.2462

          k =-0.5000 0.0000 0.0000 (  1534 PWs)   bands (ev):

    -9.7553  -9.6601  -7.8062  -7.7261  -4.0559  -3.9764  -1.6202  -1.5194
     1.7071   1.7639   5.0671   5.1435   8.1270   8.1669  11.5703  11.7331
    13.1823  13.3320  16.1586  16.2845

          k =-0.5000 0.0000-0.5107 (  1556 PWs)   bands (ev):

    -9.5249  -9.4231  -8.2989  -8.2403  -3.1237  -3.0493  -2.3950  -2.2939
     2.6251   2.6969   3.9414   3.9714   8.5623   8.6428  10.4613  10.5795
    14.7483  14.7708  14.8860  14.9158

          k =-0.5000 0.8397 0.0000 (  1562 PWs)   bands (ev):

    -7.1928  -7.0974  -5.3588  -5.2783  -1.5470  -1.4638   0.6971   0.8019
     4.4478   4.5070   7.3181   7.3976  10.1192  10.1623  11.4092  11.5198
    12.7794  12.8909  13.5130  13.5915

          k =-0.5000 0.8397-0.5107 (  1532 PWs)   bands (ev):

    -6.9741  -6.8728  -5.8074  -5.7476  -0.6641  -0.5854  -0.0450   0.0579
     5.3573   5.4316   6.3643   6.4018  10.2400  10.3142  10.8704  10.9962
    12.7271  12.8576  13.4196  13.5382

          k =-0.5000-1.6794 0.0000 (  1560 PWs)   bands (ev):

     0.0533   0.1153   0.1651   0.1866   2.1530   2.2324   2.2576   2.2887
     4.9217   5.0642   5.1010   5.1143   6.7563   6.8666   6.9009   6.9090
    11.4249  11.5532  11.7413  11.7691

          k =-0.5000-1.6794-0.5107 (  1544 PWs)   bands (ev):

     0.1459   0.1876   0.2645   0.2744   1.9190   1.9758   2.0151   2.0503
     5.1990   5.3068   5.3676   5.4028   6.7044   6.7427   6.8490   6.8965
    11.3657  11.4688  11.6234  11.6961

     the Fermi energy is    11.4505 ev

!    total energy              =     -89.46925975 Ry
     Harris-Foulkes estimate   =     -89.46937866 Ry
     estimated scf accuracy    <       0.00013190 Ry

     The total energy is the sum of the following terms:

     one-electron contribution =      10.26477769 Ry
     hartree contribution      =      15.49803632 Ry
     xc contribution           =     -27.60267561 Ry
     ewald contribution        =     -87.62892492 Ry
     smearing contrib. (-TS)   =      -0.00047323 Ry

     convergence has been achieved in   5 iterations

     Forces acting on atoms (cartesian axes, Ry/au):

     atom    1 type  1   force =    -0.03260720    0.01498570   -0.01019085
     atom    2 type  1   force =    -0.03207139   -0.01464856    0.00972794
     atom    3 type  1   force =    -0.03757928    0.01355678    0.01379669
     atom    4 type  1   force =    -0.03474340   -0.01308069   -0.01203238
     atom    5 type  1   force =     0.03785130   -0.00336796    0.00947413
     atom    6 type  1   force =     0.03736065    0.00304655   -0.00901177
     atom    7 type  1   force =     0.03231825   -0.00190603   -0.01105713
     atom    8 type  1   force =     0.02947107    0.00141422    0.00929336

     Total force =     0.105765     Total SCF correction =     0.024070
     SCF correction compared to forces is large: reduce conv_thr to get better values

     number of scf cycles    =   8
     number of bfgs steps    =   7

     energy   old            =     -89.4634079040 Ry
     energy   new            =     -89.4692597485 Ry

     CASE: energy  _new < energy  _old

     new trust radius        =       0.0373517156 bohr
     new conv_thr            =       0.0001892565 Ry


ATOMIC_POSITIONS (crystal)
C             0.1118930154        0.0113001641        0.0657453282
C             0.1118406361        0.4886669888        0.4341192804
C             0.6103282778        0.0040465352        0.9351790069
C             0.6106475816        0.4959036583        0.5649836997
C             0.8905250314        1.0135785582        0.9341180520
C             0.8905027372        0.4865112255        0.5660282172
C             0.3872308013        1.0218212040        0.0662192521
C             0.3870319191        0.4781716658        0.4336071634


     NEW-OLD atomic charge density approx. for the potential

     total cpu time spent up to now is       51.2 secs

     Self-consistent Calculation

     iteration #  1     ecut=    40.00 Ry     beta= 0.50
     Davidson diagonalization with overlap
     ethr =  1.00E-06,  avg # of iterations =  7.6

     total cpu time spent up to now is       54.9 secs

     total energy              =     -89.46895912 Ry
     Harris-Foulkes estimate   =     -89.47595565 Ry
     estimated scf accuracy    <       0.01022631 Ry

     iteration #  2     ecut=    40.00 Ry     beta= 0.50
     Davidson diagonalization with overlap
     ethr =  3.20E-05,  avg # of iterations =  3.4

     total cpu time spent up to now is       56.7 secs

     total energy              =     -89.46096238 Ry
     Harris-Foulkes estimate   =     -89.49054398 Ry
     estimated scf accuracy    <       0.17277040 Ry

     iteration #  3     ecut=    40.00 Ry     beta= 0.50
     Davidson diagonalization with overlap
     ethr =  3.20E-05,  avg # of iterations =  3.2

     total cpu time spent up to now is       58.5 secs

     total energy              =     -89.47460184 Ry
     Harris-Foulkes estimate   =     -89.47486700 Ry
     estimated scf accuracy    <       0.00068475 Ry

     iteration #  4     ecut=    40.00 Ry     beta= 0.50
     Davidson diagonalization with overlap
     ethr =  2.14E-06,  avg # of iterations =  3.2

     total cpu time spent up to now is       61.2 secs

     total energy              =     -89.47464772 Ry
     Harris-Foulkes estimate   =     -89.47499150 Ry
     estimated scf accuracy    <       0.00196266 Ry

     iteration #  5     ecut=    40.00 Ry     beta= 0.50
     Davidson diagonalization with overlap
     ethr =  2.14E-06,  avg # of iterations =  1.9

     total cpu time spent up to now is       62.4 secs

     End of self-consistent calculation

          k = 0.0000 0.0000 0.0000 (  1551 PWs)   bands (ev):

   -10.4953  -8.5806  -7.4036  -7.3344  -6.0178  -4.4982  -0.9185   0.5696
     0.8211   1.3310   5.2854   7.2430   7.6054   7.9303   9.1202  10.7135
    12.3187  15.6960  15.7466  16.2955

          k = 0.0000 0.0000-0.5107 (  1550 PWs)   bands (ev):

    -9.8776  -9.7779  -6.8219  -6.8032  -5.8190  -5.7838   0.2203   0.2606
     2.5179   2.5958   3.1080   3.1424   9.5156   9.5237   9.5937   9.6099
    13.0265  13.1195  17.3076  17.3623

          k = 0.0000 0.8397 0.0000 (  1528 PWs)   bands (ev):

    -7.9289  -6.1263  -4.9074  -4.7466  -3.6074  -2.0769   1.5934   3.2198
     3.4118   3.5627   7.9399   8.8640   9.4013   9.6521  10.8624  11.6762
    12.6875  12.7888  13.0336  13.9494

          k = 0.0000 0.8397-0.5107 (  1540 PWs)   bands (ev):

    -7.3355  -7.2392  -4.3579  -4.3388  -3.3167  -3.2818   2.6100   2.6567
     5.1833   5.2473   5.3278   5.3360  11.0766  11.1360  11.2468  11.2943
    12.5819  12.5973  12.9854  13.0751

          k = 0.0000-1.6794 0.0000 (  1558 PWs)   bands (ev):

    -0.7539  -0.6821   1.5978   1.6923   2.2655   2.2967   2.7165   2.7439
     3.3169   3.3377   4.7408   4.7597   6.1998   6.3444   8.5772   8.6475
    10.4449  10.8852  13.2857  13.7231

          k = 0.0000-1.6794-0.5107 (  1544 PWs)   bands (ev):

    -0.6178  -0.5997   1.1324   1.1664   2.5595   2.5795   2.9172   2.9499
     3.5715   3.6855   4.0343   4.0825   6.4519   6.5019   8.9380   8.9699
    10.5915  10.7034  13.0303  13.1335

          k =-0.5000 0.0000 0.0000 (  1534 PWs)   bands (ev):

    -9.7638  -9.6027  -7.8455  -7.7126  -4.0696  -3.9337  -1.5691  -1.3876
     1.6755   1.7789   5.0116   5.1468   8.0890   8.1579  11.5386  11.8049
    13.1368  13.3907  16.1615  16.3614

          k =-0.5000 0.0000-0.5107 (  1556 PWs)   bands (ev):

    -9.5206  -9.3483  -8.3516  -8.2513  -3.1576  -3.0244  -2.3218  -2.1357
     2.6328   2.7587   3.8190   3.8675   8.5682   8.7189  10.4432  10.6361
    14.7090  14.7469  14.9530  14.9730

          k =-0.5000 0.8397 0.0000 (  1562 PWs)   bands (ev):

    -7.2029  -7.0422  -5.3987  -5.2653  -1.5587  -1.4182   0.7477   0.9340
     4.4137   4.5213   7.2565   7.3974  10.0910  10.1693  11.3121  11.4790
    12.8443  13.0443  13.4921  13.6186

          k =-0.5000 0.8397-0.5107 (  1532 PWs)   bands (ev):

    -6.9715  -6.8006  -5.8604  -5.7588  -0.6959  -0.5569   0.0270   0.2148
     5.3649   5.4936   6.2497   6.3080  10.1939  10.3269  10.8260  10.9912
    12.7943  12.9920  13.4674  13.6152

          k =-0.5000-1.6794 0.0000 (  1560 PWs)   bands (ev):

     0.0296   0.1170   0.2079   0.2464   2.0781   2.1860   2.2322   2.2846
     4.9179   5.1277   5.2085   5.2422   6.7434   6.9038   6.9598   6.9769
    11.3400  11.5220  11.8314  11.8630

          k =-0.5000-1.6794-0.5107 (  1544 PWs)   bands (ev):

     0.1309   0.1954   0.3122   0.3335   1.8580   1.9205   1.9842   2.0284
     5.2065   5.3723   5.4758   5.5395   6.7496   6.7831   6.8801   6.9408
    11.3110  11.4831  11.6401  11.6853

     the Fermi energy is    11.4269 ev

!    total energy              =     -89.47478315 Ry
     Harris-Foulkes estimate   =     -89.47482810 Ry
     estimated scf accuracy    <       0.00005626 Ry

     The total energy is the sum of the following terms:

     one-electron contribution =      10.30737547 Ry
     hartree contribution      =      15.49575388 Ry
     xc contribution           =     -27.61287225 Ry
     ewald contribution        =     -87.66436456 Ry
     smearing contrib. (-TS)   =      -0.00067569 Ry

     convergence has been achieved in   5 iterations

     Forces acting on atoms (cartesian axes, Ry/au):

     atom    1 type  1   force =    -0.01721814    0.01334080   -0.00434427
     atom    2 type  1   force =    -0.01721407   -0.01332161    0.00398598
     atom    3 type  1   force =    -0.02194774    0.01001090    0.00528366
     atom    4 type  1   force =    -0.02309149   -0.00997080   -0.00631201
     atom    5 type  1   force =     0.02584045    0.00204831    0.00353356
     atom    6 type  1   force =     0.02641569   -0.00217428   -0.00325474
     atom    7 type  1   force =     0.01327706    0.00468939   -0.00358761
     atom    8 type  1   force =     0.01393823   -0.00462272    0.00469543

     Total force =     0.064122     Total SCF correction =     0.018337
     SCF correction compared to forces is large: reduce conv_thr to get better values

     number of scf cycles    =   9
     number of bfgs steps    =   8

     energy   old            =     -89.4692597485 Ry
     energy   new            =     -89.4747831479 Ry

     CASE: energy  _new < energy  _old

     new trust radius        =       0.0560275734 bohr
     new conv_thr            =       0.0001320784 Ry


ATOMIC_POSITIONS (crystal)
C             0.1101458715        0.0275806158        0.0665423922
C             0.1101532338        0.4724075944        0.4331838275
C             0.6071406633        0.0176125331        0.9348670594
C             0.6074512891        0.4823645797        0.5652672600
C             0.8944802496        1.0135839411        0.9330652175
C             0.8945230594        0.4864471716        0.5672204693
C             0.3881886909        1.0251825946        0.0672052467
C             0.3879169423        0.4748209697        0.4326485274


     NEW-OLD atomic charge density approx. for the potential

     total cpu time spent up to now is       62.5 secs

     Self-consistent Calculation

     iteration #  1     ecut=    40.00 Ry     beta= 0.50
     Davidson diagonalization with overlap
     ethr =  1.00E-06,  avg # of iterations =  7.8

     total cpu time spent up to now is       66.8 secs

     total energy              =     -89.47944121 Ry
     Harris-Foulkes estimate   =     -89.48056754 Ry
     estimated scf accuracy    <       0.00241114 Ry

     iteration #  2     ecut=    40.00 Ry     beta= 0.50
     Davidson diagonalization with overlap
     ethr =  7.53E-06,  avg # of iterations =  2.8

     total cpu time spent up to now is       68.5 secs

     total energy              =     -89.47881828 Ry
     Harris-Foulkes estimate   =     -89.48050226 Ry
     estimated scf accuracy    <       0.00599771 Ry

     iteration #  3     ecut=    40.00 Ry     beta= 0.50
     Davidson diagonalization with overlap
     ethr =  7.53E-06,  avg # of iterations =  3.0

     total cpu time spent up to now is       70.3 secs

     total energy              =     -89.47950714 Ry
     Harris-Foulkes estimate   =     -89.48023271 Ry
     estimated scf accuracy    <       0.00381991 Ry

     iteration #  4     ecut=    40.00 Ry     beta= 0.50
     Davidson diagonalization with overlap
     ethr =  7.53E-06,  avg # of iterations =  1.8

     total cpu time spent up to now is       71.6 secs

     total energy              =     -89.47978957 Ry
     Harris-Foulkes estimate   =     -89.47999743 Ry
     estimated scf accuracy    <       0.00075966 Ry

     iteration #  5     ecut=    40.00 Ry     beta= 0.50
     Davidson diagonalization with overlap
     ethr =  2.37E-06,  avg # of iterations =  2.3

     total cpu time spent up to now is       73.2 secs

     total energy              =     -89.47987614 Ry
     Harris-Foulkes estimate   =     -89.47994714 Ry
     estimated scf accuracy    <       0.00029946 Ry

     iteration #  6     ecut=    40.00 Ry     beta= 0.50
     Davidson diagonalization with overlap
     ethr =  9.36E-07,  avg # of iterations =  1.8

     total cpu time spent up to now is       74.6 secs

     End of self-consistent calculation

          k = 0.0000 0.0000 0.0000 (  1551 PWs)   bands (ev):

   -10.4795  -8.5892  -7.5818  -7.0910  -6.2085  -4.1768  -0.8693   0.5606
     0.6884   1.5215   5.5052   7.2661   7.3695   7.9275   8.9694  10.5130
    12.6181  15.5679  15.9649  16.1939

          k = 0.0000 0.0000-0.5107 (  1550 PWs)   bands (ev):

    -9.8917  -9.7190  -7.0006  -6.9910  -5.5821  -5.5289   0.3007   0.3939
     2.5544   2.6752   2.9542   3.0225   9.4452   9.4491   9.7391   9.7610
    12.8545  13.0043  17.6422  17.7469

          k = 0.0000 0.8397 0.0000 (  1528 PWs)   bands (ev):

    -7.9148  -6.1351  -5.0916  -4.4969  -3.8023  -1.7514   1.6422   3.0870
     3.4138   3.7451   8.1620   8.8724   9.3897   9.4176  10.7421  11.7005
    12.4627  12.6141  13.0406  14.2335

          k = 0.0000 0.8397-0.5107 (  1540 PWs)   bands (ev):

    -7.3504  -7.1844  -4.5414  -4.5313  -3.0718  -3.0195   2.6915   2.7988
     5.1339   5.1971   5.2338   5.3834  10.9317  11.0367  11.3499  11.4510
    12.3482  12.3856  13.0636  13.2221

          k = 0.0000-1.6794 0.0000 (  1558 PWs)   bands (ev):

    -0.7576  -0.6359   1.5116   1.6582   2.0833   2.1219   2.9522   2.9932
     3.1099   3.1302   5.0320   5.0590   6.3531   6.6189   8.5169   8.6326
    10.3425  11.0808  13.0658  13.7758

          k = 0.0000-1.6794-0.5107 (  1544 PWs)   bands (ev):

    -0.6020  -0.5687   1.1170   1.1560   2.3805   2.3956   2.7155   2.7383
     3.7224   3.8792   4.3174   4.4011   6.6740   6.7763   8.9092   8.9582
    10.5626  10.7424  12.8561  12.9854

          k =-0.5000 0.0000 0.0000 (  1534 PWs)   bands (ev):

    -9.8092  -9.5187  -7.9210  -7.6822  -4.1097  -3.8324  -1.5003  -1.1234
     1.6149   1.8069   4.8795   5.1500   8.0519   8.1817  11.4400  11.9498
    13.0014  13.4907  16.1591  16.5335

          k =-0.5000 0.0000-0.5107 (  1556 PWs)   bands (ev):

    -9.5512  -9.2389  -8.4419  -8.2561  -3.2100  -2.9431  -2.2370  -1.8471
     2.6167   2.8522   3.6314   3.7293   8.5432   8.8672  10.3795  10.7373
    14.6112  14.6874  15.0656  15.1275

          k =-0.5000 0.8397 0.0000 (  1562 PWs)   bands (ev):

    -7.2510  -6.9623  -5.4754  -5.2369  -1.5963  -1.3112   0.8154   1.1989
     4.3474   4.5469   7.1179   7.3960  10.0572  10.2033  11.1495  11.4413
    12.8969  13.2752  13.4486  13.6908

          k =-0.5000 0.8397-0.5107 (  1532 PWs)   bands (ev):

    -7.0049  -6.6963  -5.9517  -5.7648  -0.7459  -0.4685   0.1104   0.5013
     5.3472   5.5848   6.0717   6.1829  10.1021  10.3731  10.7213  11.0002
    12.8376  13.2110  13.5239  13.7882

          k =-0.5000-1.6794 0.0000 (  1560 PWs)   bands (ev):

    -0.0439   0.0980   0.2694   0.3346   1.9331   2.0942   2.1868   2.2626
     4.8880   5.2261   5.4341   5.5056   6.7046   6.9489   7.1125   7.1339
    11.1826  11.4787  11.9857  12.0558

          k =-0.5000-1.6794-0.5107 (  1544 PWs)   bands (ev):

     0.0683   0.1789   0.3855   0.4260   1.7331   1.7974   1.9505   1.9840
     5.1827   5.4767   5.7120   5.8354   6.7659   6.7895   7.0129   7.0935
    11.1735  11.4999  11.6926  11.7066

     the Fermi energy is    11.4168 ev

!    total energy              =     -89.47988522 Ry
     Harris-Foulkes estimate   =     -89.47991778 Ry
     estimated scf accuracy    <       0.00003892 Ry

     The total energy is the sum of the following terms:

     one-electron contribution =      10.26700148 Ry
     hartree contribution      =      15.54409205 Ry
     xc contribution           =     -27.63026110 Ry
     ewald contribution        =     -87.66082873 Ry
     smearing contrib. (-TS)   =       0.00011107 Ry

     convergence has been achieved in   6 iterations

     Forces acting on atoms (cartesian axes, Ry/au):

     atom    1 type  1   force =     0.00584921    0.01159417    0.00622562
     atom    2 type  1   force =     0.00368313   -0.01154729   -0.00520557
     atom    3 type  1   force =    -0.00594084    0.00594281   -0.00280319
     atom    4 type  1   force =    -0.00704416   -0.00587670    0.00104687
     atom    5 type  1   force =     0.00842478    0.00964956   -0.00511822
     atom    6 type  1   force =     0.00948879   -0.00975402    0.00399082
     atom    7 type  1   force =    -0.00832976    0.01429578    0.00297192
     atom    8 type  1   force =    -0.00613115   -0.01430430   -0.00110824

     Total force =     0.038243     Total SCF correction =     0.013131
     SCF correction compared to forces is large: reduce conv_thr to get better values

     number of scf cycles    =  10
     number of bfgs steps    =   9

     energy   old            =     -89.4747831479 Ry
     energy   new            =     -89.4798852232 Ry

     CASE: energy  _new < energy  _old

     new trust radius        =       0.0765823289 bohr
     new conv_thr            =       0.0000715215 Ry


ATOMIC_POSITIONS (crystal)
C             0.1090063567        0.0501435541        0.0685822685
C             0.1086962075        0.4499042274        0.4312122661
C             0.6027481582        0.0348074027        0.9339351737
C             0.6029878560        0.4652373436        0.5659431190
C             0.8998088625        1.0169065103        0.9310016908
C             0.9000439687        0.4830352614        0.5692039478
C             0.3883736438        1.0340303695        0.0687841870
C             0.3883349467        0.4659353310        0.4313373471


     NEW-OLD atomic charge density approx. for the potential

     total cpu time spent up to now is       74.6 secs

     Self-consistent Calculation

     iteration #  1     ecut=    40.00 Ry     beta= 0.50
     Davidson diagonalization with overlap
     ethr =  1.00E-06,  avg # of iterations =  8.0

     total cpu time spent up to now is       79.7 secs

     total energy              =     -89.48119069 Ry
     Harris-Foulkes estimate   =     -89.48307758 Ry
[...]

          k = 0.0000 0.0000 0.0000 (  1551 PWs)   bands (ev):

   -11.0334  -8.7525  -8.1527  -7.0612  -3.2885  -2.6510  -2.3561   0.1352
     1.4534   3.9409   4.6507   4.9010   6.1678   7.8915   9.3291  11.0009
    13.7607  14.3377  15.8503  17.9020

          k = 0.0000 0.0000-0.5107 (  1550 PWs)   bands (ev):

   -10.7470  -9.7171  -7.1122  -6.9362  -5.0758  -2.8618   0.4844   0.9403
     1.8724   2.3412   2.7599   5.4734   6.1598   6.6701   8.8097  13.5815
    13.7267  14.3988  16.8723  17.3665

          k = 0.0000 0.8397 0.0000 (  1528 PWs)   bands (ev):

    -8.4382  -6.2148  -5.6256  -4.5706  -0.8234  -0.2725  -0.0003   2.7558
     3.9053   6.3258   6.6951   7.1903   7.9918   9.4152  10.5635  11.1274
    11.7276  14.1299  14.3698  14.9720

          k = 0.0000 0.8397-0.5107 (  1540 PWs)   bands (ev):

    -8.1594  -7.1573  -4.6079  -4.4348  -2.6084  -0.4235   2.6679   3.2796
     4.4075   4.7312   5.2683   7.3944   8.2706   8.5146  10.2616  11.6460
    12.0145  13.9123  14.6726  15.1990

          k = 0.0000-1.6794 0.0000 (  1558 PWs)   bands (ev):

    -1.1907  -0.3685   0.8727   1.3908   1.4022   1.8996   2.4270   2.8065
     5.3638   5.6151   5.8540   6.1762   6.5852   6.8498   8.4488   9.2648
     9.4218   9.9861  12.4716  12.8891

          k = 0.0000-1.6794-0.5107 (  1544 PWs)   bands (ev):

    -0.8873  -0.1881  -0.0928   0.7866   2.4142   2.5795   2.6563   2.7214
     3.9944   4.6952   5.7743   6.3662   7.6474   8.2308   8.4660   9.0546
     9.1801  10.2038  11.3967  13.7773

          k =-0.5000 0.0000 0.0000 (  1534 PWs)   bands (ev):

   -10.5405 -10.0074  -7.8283  -5.4449  -5.4271  -2.7072  -0.0058   0.5114
     1.0010   2.1408   3.3267   5.4413   6.7249   7.8328   9.8107  13.1760
    13.5085  14.5030  14.8645  16.6790

          k =-0.5000 0.0000-0.5107 (  1556 PWs)   bands (ev):

   -10.3156 -10.0367  -8.3572  -6.2070  -3.6923  -2.7830  -0.8713  -0.1836
     2.6085   2.8134   3.7857   4.2757   5.4474   8.1189   8.7051  11.6960
    14.7911  16.1583  16.9346  17.0458

          k =-0.5000 0.8397 0.0000 (  1562 PWs)   bands (ev):

    -7.9641  -7.4196  -5.3423  -2.9649  -2.9529  -0.2911   2.3045   2.8706
     3.4270   4.6441   5.7253   7.4535   8.8214   9.4783  10.7129  11.7671
    12.0346  14.1121  14.2533  15.0006

          k =-0.5000 0.8397-0.5107 (  1532 PWs)   bands (ev):

    -7.7384  -7.4732  -5.7996  -3.7255  -1.3497  -0.3482   1.5537   2.2065
     4.8672   5.2109   6.2011   6.6632   7.5599   9.8448  10.1013  11.2518
    12.0996  13.4027  14.0204  15.8131

          k =-0.5000-1.6794 0.0000 (  1560 PWs)   bands (ev):

    -0.7722  -0.1154   0.0047   0.4121   1.5127   2.2674   3.7256   3.7744
     3.9245   4.2250   6.0559   6.2921   7.6421   7.7903   8.3231   8.8603
     9.0585  10.5896  11.0718  13.5032

          k =-0.5000-1.6794-0.5107 (  1544 PWs)   bands (ev):

    -0.5141  -0.3117   0.1427   0.4323   1.4267   1.7784   2.9782   3.6931
     4.6600   5.4363   5.7612   6.0263   7.1384   8.0526   8.1878   8.3822
     9.8235  11.2707  11.7401  12.3067

     the Fermi energy is    11.2660 ev

!    total energy              =     -89.83837286 Ry
     Harris-Foulkes estimate   =     -89.83837995 Ry
     estimated scf accuracy    <       0.00001132 Ry

     The total energy is the sum of the following terms:

     one-electron contribution =       5.20916956 Ry
     hartree contribution      =      18.06382904 Ry
     xc contribution           =     -27.60562354 Ry
     ewald contribution        =     -85.50460817 Ry
     smearing contrib. (-TS)   =      -0.00113975 Ry

     convergence has been achieved in   5 iterations

     Forces acting on atoms (cartesian axes, Ry/au):

     atom    1 type  1   force =     0.00754871    0.00256881    0.00607873
     atom    2 type  1   force =     0.00414033    0.00316225   -0.00606395
     atom    3 type  1   force =    -0.01644332   -0.00120654    0.00514422
     atom    4 type  1   force =    -0.01216808   -0.00026679   -0.00725185
     atom    5 type  1   force =     0.00845069   -0.00002113    0.00033685
     atom    6 type  1   force =     0.00649739   -0.00049961    0.00571450
     atom    7 type  1   force =     0.00050320   -0.00645056   -0.00284390
     atom    8 type  1   force =     0.00147108    0.00271357   -0.00111461

     Total force =     0.029510     Total SCF correction =     0.008906
     SCF correction compared to forces is large: reduce conv_thr to get better values

     number of scf cycles    =  61
     number of bfgs steps    =  60

     energy   old            =     -89.8356325101 Ry
     energy   new            =     -89.8383728557 Ry

     CASE: energy  _new < energy  _old

     new trust radius        =       0.0337741715 bohr
     new conv_thr            =       0.0000822166 Ry


ATOMIC_POSITIONS (crystal)
C             0.1359140484        0.2444129886       -0.0241924574
C             0.1060494079        0.2440677642        0.2697027204
C             0.7549167431        0.2535772506        1.1342329793
C             0.4927052703        0.2521235467        0.6324315085
C             0.8721058171        1.2494381207        0.8875801641
C             0.7644804499        0.2509943281        0.6189139697
C             0.4988237512        1.2545950012        0.1188733402
C             0.3750045121        0.2507910000        0.3624577753


     NEW-OLD atomic charge density approx. for the potential

     total cpu time spent up to now is     2439.1 secs

     Self-consistent Calculation

     iteration #  1     ecut=    40.00 Ry     beta= 0.50
     Davidson diagonalization with overlap
     ethr =  1.00E-06,  avg # of iterations =  5.1

     total cpu time spent up to now is     2462.5 secs

     total energy              =     -89.83881157 Ry
     Harris-Foulkes estimate   =     -89.83916526 Ry
     estimated scf accuracy    <       0.00058375 Ry

     iteration #  2     ecut=    40.00 Ry     beta= 0.50
     Davidson diagonalization with overlap
     ethr =  1.82E-06,  avg # of iterations =  4.2

     total cpu time spent up to now is     2478.7 secs

     total energy              =     -89.83882441 Ry
     Harris-Foulkes estimate   =     -89.83930382 Ry
     estimated scf accuracy    <       0.00152875 Ry

     iteration #  3     ecut=    40.00 Ry     beta= 0.50
     Davidson diagonalization with overlap
     ethr =  1.82E-06,  avg # of iterations =  3.3

     total cpu time spent up to now is     2493.4 secs

     total energy              =     -89.83904675 Ry
     Harris-Foulkes estimate   =     -89.83907555 Ry
     estimated scf accuracy    <       0.00009060 Ry

     iteration #  4     ecut=    40.00 Ry     beta= 0.50
     Davidson diagonalization with overlap
     ethr =  2.83E-07,  avg # of iterations =  2.3

     total cpu time spent up to now is     2504.5 secs

     End of self-consistent calculation

          k = 0.0000 0.0000 0.0000 (  1551 PWs)   bands (ev):

   -11.0462  -8.7700  -8.0967  -7.0952  -3.3368  -2.6452  -2.3719   0.1583
     1.4442   3.9239   4.6725   4.8654   6.1697   7.8852   9.3467  11.0172
    13.8475  14.3362  15.8206  17.8945

          k = 0.0000 0.0000-0.5107 (  1550 PWs)   bands (ev):

   -10.7752  -9.6874  -7.1530  -6.8844  -5.1286  -2.8685   0.4607   0.9354
     1.8641   2.3598   2.7736   5.4790   6.1191   6.6718   8.8310  13.5759
    13.8044  14.3977  16.8160  17.4285

          k = 0.0000 0.8397 0.0000 (  1528 PWs)   bands (ev):

    -8.4511  -6.2326  -5.5669  -4.6070  -0.8731  -0.2656  -0.0148   2.7793
     3.8948   6.3088   6.7011   7.1709   7.9987   9.4097  10.5813  11.1366
    11.7176  14.0919  14.4100  14.9873

          k = 0.0000 0.8397-0.5107 (  1540 PWs)   bands (ev):

    -8.1876  -7.1277  -4.6486  -4.3819  -2.6627  -0.4288   2.6423   3.2765
     4.3998   4.7431   5.2842   7.4030   8.2299   8.5392  10.2626  11.6313
    12.0094  13.9415  14.6841  15.1251

          k = 0.0000-1.6794 0.0000 (  1558 PWs)   bands (ev):

    -1.2035  -0.3815   0.8531   1.3870   1.4457   1.9532   2.3907   2.7891
     5.3189   5.6183   5.8436   6.1537   6.5621   6.8446   8.4225   9.2879
     9.4267   9.9643  12.4524  12.9116

          k = 0.0000-1.6794-0.5107 (  1544 PWs)   bands (ev):

    -0.9148  -0.2152  -0.0695   0.8195   2.3797   2.5637   2.7082   2.7526
     3.9447   4.6408   5.7839   6.3485   7.6263   8.2173   8.4400   9.0803
     9.1630  10.1929  11.4213  13.7552

          k =-0.5000 0.0000 0.0000 (  1534 PWs)   bands (ev):

   -10.5363 -10.0443  -7.7674  -5.5018  -5.4276  -2.7290  -0.0229   0.5338
     0.9732   2.1334   3.3275   5.4552   6.7242   7.8423   9.8074  13.2317
    13.5724  14.3947  14.9015  16.7189

          k =-0.5000 0.0000-0.5107 (  1556 PWs)   bands (ev):

   -10.3340 -10.0474  -8.3124  -6.2342  -3.7003  -2.8186  -0.8742  -0.2073
     2.6459   2.8112   3.7762   4.2628   5.4435   8.1288   8.7285  11.6785
    14.8141  16.2093  16.9559  17.0494

          k =-0.5000 0.8397 0.0000 (  1562 PWs)   bands (ev):

    -7.9605  -7.4562  -5.2814  -3.0148  -2.9602  -0.3143   2.2919   2.8924
     3.3970   4.6359   5.7308   7.4651   8.8077   9.5092  10.7098  11.7568
    12.0242  14.1562  14.2462  14.9974

          k =-0.5000 0.8397-0.5107 (  1532 PWs)   bands (ev):

    -7.7567  -7.4835  -5.7546  -3.7531  -1.3582  -0.3847   1.5528   2.1831
     4.9001   5.2083   6.1904   6.6527   7.5649   9.8580  10.1195  11.2454
    12.0762  13.3721  14.0524  15.8158

          k =-0.5000-1.6794 0.0000 (  1560 PWs)   bands (ev):

    -0.7736  -0.1462   0.0115   0.3720   1.5557   2.3543   3.6777   3.7885
     3.9057   4.1671   6.0283   6.2617   7.6630   7.7631   8.3359   8.8257
     9.0547  10.6176  11.0484  13.5025

          k =-0.5000-1.6794-0.5107 (  1544 PWs)   bands (ev):

    -0.5345  -0.3145   0.1292   0.4109   1.4583   1.8476   2.9548   3.6634
     4.6570   5.3957   5.7443   6.0012   7.1251   8.0706   8.1885   8.3516
     9.8067  11.3122  11.6982  12.3177

     the Fermi energy is    11.2724 ev

!    total energy              =     -89.83904539 Ry
     Harris-Foulkes estimate   =     -89.83906998 Ry
     estimated scf accuracy    <       0.00003169 Ry

     The total energy is the sum of the following terms:

     one-electron contribution =       5.11257032 Ry
     hartree contribution      =      18.11531812 Ry
     xc contribution           =     -27.60916588 Ry
     ewald contribution        =     -85.45671657 Ry
     smearing contrib. (-TS)   =      -0.00105138 Ry

     convergence has been achieved in   4 iterations

     Forces acting on atoms (cartesian axes, Ry/au):

     atom    1 type  1   force =     0.00630650    0.00273155    0.00415476
     atom    2 type  1   force =     0.00521845    0.00383732   -0.00247218
     atom    3 type  1   force =    -0.00976655   -0.00183852    0.00348845
     atom    4 type  1   force =    -0.00279876   -0.00173550   -0.00645341
     atom    5 type  1   force =     0.00151343    0.00063938    0.00530772
     atom    6 type  1   force =    -0.00381799   -0.00042658   -0.00024909
     atom    7 type  1   force =     0.00233942   -0.00294820   -0.00610933
     atom    8 type  1   force =     0.00100550   -0.00025946    0.00233309

     Total force =     0.019486     Total SCF correction =     0.015774
     SCF correction compared to forces is large: reduce conv_thr to get better values

     number of scf cycles    =  62
     number of bfgs steps    =  61

     energy   old            =     -89.8383728557 Ry
     energy   new            =     -89.8390453868 Ry

     CASE: energy  _new < energy  _old

     new trust radius        =       0.0214895586 bohr
     new conv_thr            =       0.0000336266 Ry


ATOMIC_POSITIONS (crystal)
C             0.1372179464        0.2463755144       -0.0227648407
C             0.1067071883        0.2450674424        0.2699456247
C             0.7531021768        0.2515391692        1.1346345738
C             0.4918214744        0.2532031804        0.6307995146
C             0.8730142815        1.2507024740        0.8892516435
C             0.7643943953        0.2499086525        0.6188933299
C             0.4983547226        1.2516133771        0.1178130062
C             0.3753878148        0.2515901901        0.3614271479


     NEW-OLD atomic charge density approx. for the potential

     total cpu time spent up to now is     2504.7 secs

     Self-consistent Calculation

     iteration #  1     ecut=    40.00 Ry     beta= 0.50
     Davidson diagonalization with overlap
     ethr =  1.00E-06,  avg # of iterations =  6.2

     total cpu time spent up to now is     2530.6 secs

     total energy              =     -89.83861547 Ry
     Harris-Foulkes estimate   =     -89.83978970 Ry
     estimated scf accuracy    <       0.00173161 Ry

     iteration #  2     ecut=    40.00 Ry     beta= 0.50
     Davidson diagonalization with overlap
     ethr =  5.41E-06,  avg # of iterations =  4.2

     total cpu time spent up to now is     2547.9 secs

     total energy              =     -89.83825836 Ry
     Harris-Foulkes estimate   =     -89.84102840 Ry
     estimated scf accuracy    <       0.01137305 Ry

     iteration #  3     ecut=    40.00 Ry     beta= 0.50
     Davidson diagonalization with overlap
     ethr =  5.41E-06,  avg # of iterations =  3.8

     total cpu time spent up to now is     2563.8 secs

     End of self-consistent calculation

          k = 0.0000 0.0000 0.0000 (  1551 PWs)   bands (ev):

   -11.0510  -8.7618  -8.0765  -7.1437  -3.3192  -2.6314  -2.3916   0.1591
     1.4523   3.9346   4.6757   4.8211   6.1630   7.8688   9.3702  11.0115
    13.8672  14.3516  15.8276  17.8758

          k = 0.0000 0.0000-0.5107 (  1550 PWs)   bands (ev):

   -10.7877  -9.6644  -7.1968  -6.8762  -5.1178  -2.8711   0.4684   0.9358
     1.8595   2.3612   2.7875   5.4704   6.0800   6.6636   8.8429  13.6157
    13.8261  14.3537  16.8000  17.4690

          k = 0.0000 0.8397 0.0000 (  1528 PWs)   bands (ev):

    -8.4559  -6.2242  -5.5461  -4.6571  -0.8551  -0.2507  -0.0350   2.7801
     3.9003   6.3196   6.6962   7.1386   8.0004   9.3885  10.5913  11.1422
    11.7150  14.1064  14.3982  14.9884

          k = 0.0000 0.8397-0.5107 (  1540 PWs)   bands (ev):

    -8.2002  -7.1049  -4.6929  -4.3732  -2.6529  -0.4300   2.6453   3.2827
     4.3921   4.7429   5.3003   7.3982   8.1871   8.5425  10.2588  11.6325
    12.0139  13.9633  14.6738  15.1052

          k = 0.0000-1.6794 0.0000 (  1558 PWs)   bands (ev):

    -1.2054  -0.3895   0.8648   1.3891   1.4551   1.9741   2.3509   2.7451
     5.3446   5.6217   5.8554   6.1514   6.5715   6.8094   8.4207   9.3151
     9.4250   9.9672  12.4260  12.9096

          k = 0.0000-1.6794-0.5107 (  1544 PWs)   bands (ev):

    -0.9240  -0.2294  -0.0502   0.8401   2.3448   2.5291   2.7139   2.7527
     3.9446   4.6608   5.8001   6.3331   7.6086   8.2227   8.4299   9.1180
     9.1617  10.1901  11.4160  13.7349

          k =-0.5000 0.0000 0.0000 (  1534 PWs)   bands (ev):

   -10.5169 -10.0784  -7.7500  -5.5127  -5.4353  -2.7226  -0.0393   0.5294
     0.9692   2.1397   3.3458   5.4557   6.7068   7.8377   9.7995  13.2299
    13.5778  14.3691  14.9504  16.7519

          k =-0.5000 0.0000-0.5107 (  1556 PWs)   bands (ev):

   -10.3009 -10.0954  -8.2980  -6.2425  -3.7141  -2.8098  -0.8617  -0.2344
     2.6601   2.8063   3.7763   4.2693   5.4426   8.1176   8.7195  11.6750
    14.8127  16.2100  16.9869  17.0557

          k =-0.5000 0.8397 0.0000 (  1562 PWs)   bands (ev):

    -7.9421  -7.4895  -5.2647  -3.0270  -2.9675  -0.3075   2.2796   2.8910
     3.3909   4.6399   5.7477   7.4697   8.7832   9.5106  10.6923  11.7664
    12.0264  14.1618  14.2244  15.0071

          k =-0.5000 0.8397-0.5107 (  1532 PWs)   bands (ev):

    -7.7217  -7.5329  -5.7409  -3.7620  -1.3717  -0.3764   1.5681   2.1547
     4.9132   5.2071   6.1889   6.6572   7.5670   9.8465  10.1091  11.2358
    12.0799  13.3698  14.0641  15.8089

          k =-0.5000-1.6794 0.0000 (  1560 PWs)   bands (ev):

    -0.7594  -0.1667   0.0343   0.3247   1.5607   2.3888   3.6636   3.7881
     3.8813   4.1604   6.0246   6.2633   7.6776   7.7489   8.3573   8.8295
     9.0467  10.6217  11.0414  13.4915

          k =-0.5000-1.6794-0.5107 (  1544 PWs)   bands (ev):

    -0.4984  -0.3540   0.1632   0.3488   1.4576   1.8792   2.9498   3.6418
     4.6526   5.4158   5.7179   5.9967   7.1237   8.0999   8.2005   8.3254
     9.8157  11.3388  11.6583  12.3203

     the Fermi energy is    11.2731 ev

!    total energy              =     -89.83954446 Ry
     Harris-Foulkes estimate   =     -89.83955927 Ry
     estimated scf accuracy    <       0.00002593 Ry

     The total energy is the sum of the following terms:

     one-electron contribution =       4.91497660 Ry
     hartree contribution      =      18.20532608 Ry
     xc contribution           =     -27.61375855 Ry
     ewald contribution        =     -85.34503727 Ry
     smearing contrib. (-TS)   =      -0.00105133 Ry

     convergence has been achieved in   3 iterations

     Forces acting on atoms (cartesian axes, Ry/au):

     atom    1 type  1   force =     0.00374279    0.00163600    0.00324212
     atom    2 type  1   force =     0.00792132    0.00402513   -0.00083787
     atom    3 type  1   force =    -0.00055965   -0.00067464    0.00411404
     atom    4 type  1   force =     0.00105767   -0.00301958   -0.00394383
     atom    5 type  1   force =    -0.00293530   -0.00176134   -0.00088875
     atom    6 type  1   force =    -0.00497178    0.00213661    0.00249474
     atom    7 type  1   force =    -0.00269176   -0.00023989   -0.00582425
     atom    8 type  1   force =    -0.00156329   -0.00210229    0.00164381

     Total force =     0.015784     Total SCF correction =     0.012760
     SCF correction compared to forces is large: reduce conv_thr to get better values

     number of scf cycles    =  63
     number of bfgs steps    =  62

     energy   old            =     -89.8390453868 Ry
     energy   new            =     -89.8395444569 Ry

     CASE: energy  _new < energy  _old

     new trust radius        =       0.0229580401 bohr
     new conv_thr            =       0.0000249535 Ry


ATOMIC_POSITIONS (crystal)
C             0.1384841876        0.2492281241       -0.0223649632
C             0.1086628819        0.2476318657        0.2699655954
C             0.7518338750        0.2500655946        1.1355690984
C             0.4906909371        0.2520534620        0.6289825117
C             0.8730686835        1.2513244874        0.8903427232
C             0.7635269515        0.2493897382        0.6194907162
C             0.4977885851        1.2495637166        0.1172134969
C             0.3759438984        0.2507430114        0.3608008213


     NEW-OLD atomic charge density approx. for the potential

     total cpu time spent up to now is     2564.0 secs

     Self-consistent Calculation

     iteration #  1     ecut=    40.00 Ry     beta= 0.50
     Davidson diagonalization with overlap
     ethr =  1.00E-06,  avg # of iterations =  6.4

     total cpu time spent up to now is     2590.8 secs

     total energy              =     -89.83963532 Ry
     Harris-Foulkes estimate   =     -89.83995219 Ry
     estimated scf accuracy    <       0.00052081 Ry

     iteration #  2     ecut=    40.00 Ry     beta= 0.50
     Davidson diagonalization with overlap
     ethr =  1.63E-06,  avg # of iterations =  4.2

     total cpu time spent up to now is     2608.2 secs

     total energy              =     -89.83965077 Ry
     Harris-Foulkes estimate   =     -89.84006372 Ry
     estimated scf accuracy    <       0.00129685 Ry

     iteration #  3     ecut=    40.00 Ry     beta= 0.50
     Davidson diagonalization with overlap
     ethr =  1.63E-06,  avg # of iterations =  3.8

     total cpu time spent up to now is     2624.4 secs

     total energy              =     -89.83983941 Ry
     Harris-Foulkes estimate   =     -89.83988040 Ry
     estimated scf accuracy    <       0.00015027 Ry

     iteration #  4     ecut=    40.00 Ry     beta= 0.50
     Davidson diagonalization with overlap
