
     Program PWSCF v.6.5 starts on 10Jul2022 at  7:57:56 

     This program is part of the open-source Quantum ESPRESSO suite
     for quantum simulation of materials; please cite
         "P. Giannozzi et al., J. Phys.:Condens. Matter 21 395502 (2009);
         "P. Giannozzi et al., J. Phys.:Condens. Matter 29 465901 (2017);
          URL http://www.quantum-espresso.org", 
     in publications or presentations arising from this work. More details at
     http://www.quantum-espresso.org/quote

     Parallel version (MPI), running on    96 processors

     MPI processes distributed on     2 nodes
     R & G space division:  proc/nbgrp/npool/nimage =      96
     Waiting for input...
     Reading input from standard input
     Message from routine read_cards :
     DEPRECATED: no units specified in CELL_PARAMETERS card

     Current dimensions of program PWSCF are:
     Max number of different atomic species (ntypx) = 10
     Max number of k-points (npk) =  40000
     Max angular momentum in pseudopotentials (lmaxx) =  3

     Subspace diagonalization in iterative solution of the eigenvalue problem:
     one sub-group per band group will be used
     scalapack distributed-memory algorithm (size of sub-group:  9*  9 procs)

 
     Parallelization info
     --------------------
     sticks:   dense  smooth     PW     G-vecs:    dense   smooth      PW
     Min          15      15      4                  189      189      32
     Max          16      16      5                  191      191      36
     Sum        1461    1461    461                18239    18239    3303
 


     bravais-lattice index     =            0
     lattice parameter (alat)  =      13.1658  a.u.
     unit-cell volume          =     532.8007 (a.u.)^3
     number of atoms/cell      =            8
     number of atomic types    =            1
     number of electrons       =        32.00
     number of Kohn-Sham states=           20
     kinetic-energy cutoff     =      40.0000  Ry
     charge density cutoff     =     160.0000  Ry
     convergence threshold     =      1.0E-06
     mixing beta               =       0.5000
     number of iterations used =            8  plain     mixing
     Exchange-correlation=  SLA  PW   PBE  PBE
                           (   1   4   3   4   0   0   0)
     nstep                     =          250


     celldm(1)=  13.165783  celldm(2)=   0.000000  celldm(3)=   0.000000
     celldm(4)=   0.000000  celldm(5)=   0.000000  celldm(6)=   0.000000

     crystal axes: (cart. coord. in units of alat)
               a(1) = (   0.999166  -0.032584  -0.024617 )  
               a(2) = (  -0.008279   0.661844  -0.001109 )  
               a(3) = (  -0.006228   0.001884   0.353340 )  

     reciprocal axes: (cart. coord. in units 2 pi/alat)
               b(1) = (  1.001678  0.012559  0.017589 )  
               b(2) = (  0.049116  1.511531 -0.007192 )  
               b(3) = (  0.069940  0.005619  2.831337 )  


     PseudoPot. # 1 for C  read from file:
     ./C.pbe-van_bm.upf
     MD5 check sum: 1a69bf6b8db32088f5b2163dbdb77a27
     Pseudo is Ultrasoft, Zval =  4.0
     Generated by new atomic code, or converted to UPF format
     Using radial grid of  721 points,  4 beta functions with: 
                l(1) =   0
                l(2) =   0
                l(3) =   1
                l(4) =   1
     Q(r) pseudized with  8 coefficients,  rinner =    0.800   0.800   0.800


     atomic species   valence    mass     pseudopotential
        C              4.00    12.00000     C ( 1.00)

     No symmetry found



   Cartesian axes

     site n.     atom                  positions (alat units)
         1           C   tau(   1) = (   0.4454719   0.2075147   0.1299851  )
         2           C   tau(   2) = (   0.3756123   0.2836517   0.3041015  )
         3           C   tau(   3) = (   0.9531381   0.4547286   0.0371558  )
         4           C   tau(   4) = (   0.5705683   0.0516811   0.1468081  )
         5           C   tau(   5) = (   0.7625025   0.5017711   0.3528920  )
         6           C   tau(   6) = (   0.2389081   0.4209821   0.2761181  )
         7           C   tau(   7) = (   0.0544666   0.4661509   0.2385758  )
         8           C   tau(   8) = (   0.6342302  -0.0225349   0.3260303  )

     number of k points=    12  Marzari-Vanderbilt smearing, width (Ry)=  0.0200
                       cart. coord. in units 2pi/alat
        k(    1) = (   0.0000000   0.0000000   0.0000000), wk =   0.1250000
        k(    2) = (   0.0174850   0.0014047   0.7078342), wk =   0.2500000
        k(    3) = (  -0.0349700  -0.0028094  -1.4156684), wk =   0.1250000
        k(    4) = (  -0.0245582  -0.7557657   0.0035961), wk =   0.1250000
        k(    5) = (  -0.0070732  -0.7543610   0.7114303), wk =   0.2500000
        k(    6) = (  -0.0595282  -0.7585752  -1.4120723), wk =   0.1250000
        k(    7) = (  -0.5008389  -0.0062797  -0.0087947), wk =   0.1250000
        k(    8) = (  -0.4833539  -0.0048750   0.6990395), wk =   0.2500000
        k(    9) = (  -0.5358089  -0.0090892  -1.4244631), wk =   0.1250000
        k(   10) = (  -0.5253971  -0.7620455  -0.0051986), wk =   0.1250000
        k(   11) = (  -0.5079121  -0.7606408   0.7026356), wk =   0.2500000
        k(   12) = (  -0.5603671  -0.7648549  -1.4208670), wk =   0.1250000

     Dense  grid:    18239 G-vectors     FFT dimensions: (  54,  36,  20)

     Estimated max dynamical RAM per process >       2.35 MB

     Estimated total dynamical RAM >     225.28 MB

     Initial potential from superposition of free atoms

     starting charge   31.99968, renormalised to   32.00000
     Starting wfcs are   32 randomized atomic wfcs

     total cpu time spent up to now is        0.6 secs

     Self-consistent Calculation

     iteration #  1     ecut=    40.00 Ry     beta= 0.50
     Davidson diagonalization with overlap
     ethr =  1.00E-02,  avg # of iterations =  2.2

     total cpu time spent up to now is        1.2 secs

     total energy              =     -90.59910658 Ry
     Harris-Foulkes estimate   =     -90.99686608 Ry
     estimated scf accuracy    <       0.79003402 Ry

     iteration #  2     ecut=    40.00 Ry     beta= 0.50
     Davidson diagonalization with overlap
     ethr =  2.47E-03,  avg # of iterations =  2.0

     total cpu time spent up to now is        1.7 secs

     total energy              =     -90.64159573 Ry
     Harris-Foulkes estimate   =     -90.68228977 Ry
     estimated scf accuracy    <       0.08202923 Ry

     iteration #  3     ecut=    40.00 Ry     beta= 0.50
     Davidson diagonalization with overlap
     ethr =  2.56E-04,  avg # of iterations =  3.5

     total cpu time spent up to now is        2.5 secs

     total energy              =     -90.65200397 Ry
     Harris-Foulkes estimate   =     -90.66713256 Ry
     estimated scf accuracy    <       0.03935370 Ry

     iteration #  4     ecut=    40.00 Ry     beta= 0.50
     Davidson diagonalization with overlap
     ethr =  1.23E-04,  avg # of iterations =  2.3

     total cpu time spent up to now is        3.1 secs

     total energy              =     -90.65876149 Ry
     Harris-Foulkes estimate   =     -90.65956529 Ry
     estimated scf accuracy    <       0.00256471 Ry

     iteration #  5     ecut=    40.00 Ry     beta= 0.50
     Davidson diagonalization with overlap
     ethr =  8.01E-06,  avg # of iterations =  3.5

     total cpu time spent up to now is        3.8 secs

     total energy              =     -90.65924563 Ry
     Harris-Foulkes estimate   =     -90.65966604 Ry
     estimated scf accuracy    <       0.00135504 Ry

     iteration #  6     ecut=    40.00 Ry     beta= 0.50
     Davidson diagonalization with overlap
     ethr =  4.23E-06,  avg # of iterations =  2.7

     total cpu time spent up to now is        4.4 secs

     total energy              =     -90.65945926 Ry
     Harris-Foulkes estimate   =     -90.65948745 Ry
     estimated scf accuracy    <       0.00008043 Ry

     iteration #  7     ecut=    40.00 Ry     beta= 0.50
     Davidson diagonalization with overlap
     ethr =  2.51E-07,  avg # of iterations =  2.4

     total cpu time spent up to now is        5.0 secs

     total energy              =     -90.65944751 Ry
     Harris-Foulkes estimate   =     -90.65952600 Ry
     estimated scf accuracy    <       0.00048108 Ry

     iteration #  8     ecut=    40.00 Ry     beta= 0.50
     Davidson diagonalization with overlap
     ethr =  2.51E-07,  avg # of iterations =  2.0

     total cpu time spent up to now is        5.7 secs

     total energy              =     -90.65948707 Ry
     Harris-Foulkes estimate   =     -90.65948716 Ry
     estimated scf accuracy    <       0.00000133 Ry

     iteration #  9     ecut=    40.00 Ry     beta= 0.50
     Davidson diagonalization with overlap
     ethr =  4.16E-09,  avg # of iterations =  3.3

     total cpu time spent up to now is        6.5 secs

     End of self-consistent calculation

          k = 0.0000 0.0000 0.0000 (  2279 PWs)   bands (ev):

   -13.8794 -12.5656 -11.8980  -8.2579  -8.0683  -3.3044  -2.1830  -1.0062
    -0.5583  -0.4648  -0.4584   0.3818   1.2504   1.5255   4.7775   4.9997
     7.8585   9.6719   9.9300  11.2329

          k = 0.0175 0.0014 0.7078 (  2275 PWs)   bands (ev):

   -12.7900 -11.5113 -10.8818  -7.5019  -7.2594  -4.0347  -3.4497  -2.9778
    -2.1208  -1.3501  -0.0693   0.1716   0.5364   0.8548   4.4507   5.5693
     5.9704   7.0597   9.9588  10.8777

          k =-0.0350-0.0028-1.4157 (  2286 PWs)   bands (ev):

   -10.0127  -9.6839  -8.7283  -8.5799  -7.5779  -6.7949  -4.8430  -4.6386
    -3.0812  -2.8189  -1.6077   2.1965   2.5663   3.0251   4.1011   4.1791
     5.3659   5.5241   7.4823   9.2039

          k =-0.0246-0.7558 0.0036 (  2294 PWs)   bands (ev):

   -13.5007 -13.1498 -11.3252  -9.8282  -6.1177  -4.8064  -2.2241  -1.1630
    -0.8755  -0.4069   0.3416   0.8715   1.3005   2.0006   3.8400   6.2590
     8.3218   8.9732   9.7251  12.2880

          k =-0.0071-0.7544 0.7114 (  2273 PWs)   bands (ev):

   -12.4260 -12.0880 -10.2967  -8.9380  -5.5935  -4.5864  -3.7986  -2.7583
    -2.2751  -0.9855  -0.7862  -0.3551   0.0529   3.1550   4.1292   5.2158
     6.2548   7.5008   8.6823  11.7323

          k =-0.0595-0.7586-1.4121 (  2276 PWs)   bands (ev):

    -9.8081  -9.5246  -9.2862  -8.1301  -7.6651  -6.6907  -5.8988  -4.1590
    -3.0699  -2.1867  -1.8944   1.8300   2.1843   2.9025   3.6158   4.5664
     5.1567   6.1813   8.3709   9.4908

          k =-0.5008-0.0063-0.0088 (  2282 PWs)   bands (ev):

   -13.7231 -13.1127 -11.0857  -9.6832  -6.2470  -5.0118  -1.2746  -1.0185
    -0.7605  -0.4394   0.3649   0.8608   0.9170   1.3689   2.6069   6.9917
     8.2900   9.1956  10.0978  10.9014

          k =-0.4834-0.0049 0.6990 (  2276 PWs)   bands (ev):

   -12.6355 -12.0516 -10.0752  -8.8137  -5.7100  -4.7028  -3.8491  -2.7855
    -2.1898  -0.8295  -0.3447  -0.1137   0.3621   2.0654   3.1766   5.3780
     6.4386   7.9419   9.2022  11.3096

          k =-0.5358-0.0091-1.4245 (  2270 PWs)   bands (ev):

    -9.8183  -9.7257  -9.3293  -8.1252  -7.4708  -6.5417  -5.7905  -4.1579
    -3.1112  -2.2624  -1.9849   2.0100   2.7991   2.8370   3.7110   4.6466
     5.3980   5.5862   7.4800   8.5454

          k =-0.5254-0.7620-0.0052 (  2294 PWs)   bands (ev):

   -13.6432 -12.6196 -12.1488  -8.2442  -8.0994  -3.1641  -2.5438  -2.1227
    -0.4356  -0.0459   0.3302   0.8135   1.2398   1.4644   4.4164   5.8663
     7.8208   9.8750   9.9380  12.1789

          k =-0.5079-0.7606 0.7026 (  2276 PWs)   bands (ev):

   -12.5691 -11.5616 -11.1126  -7.5026  -7.2653  -3.9825  -3.4020  -3.0165
    -2.0807  -1.3321  -1.2770  -0.0629   1.1175   1.8554   4.4320   5.6233
     6.1725   6.8990   9.7174  11.0218

          k =-0.5604-0.7649-1.4209 (  2258 PWs)   bands (ev):

    -9.8519  -9.6018  -8.8396  -8.5537  -7.6696  -6.9541  -4.8455  -4.7168
    -3.0251  -2.7861  -1.5213   1.6102   2.3041   3.1257   4.0189   4.2824
     5.2675   5.8408   8.3388   9.0296

     the Fermi energy is     5.6032 ev

!    total energy              =     -90.65948760 Ry
     Harris-Foulkes estimate   =     -90.65948762 Ry
     estimated scf accuracy    <       0.00000018 Ry

     The total energy is the sum of the following terms:

     one-electron contribution =     -42.80627292 Ry
     hartree contribution      =      35.72401777 Ry
     xc contribution           =     -27.85083980 Ry
     ewald contribution        =     -55.72590222 Ry
     smearing contrib. (-TS)   =      -0.00049043 Ry

     convergence has been achieved in   9 iterations

     Forces acting on atoms (cartesian axes, Ry/au):

     atom    1 type  1   force =     0.01473567   -0.01495574    0.01730638
     atom    2 type  1   force =     0.01568867    0.00201162   -0.01135887
     atom    3 type  1   force =    -0.02735925    0.00678940   -0.04436957
     atom    4 type  1   force =    -0.01462281    0.01512432   -0.01735281
     atom    5 type  1   force =     0.03044331   -0.00669331    0.01357716
     atom    6 type  1   force =    -0.03106670    0.00710458   -0.01356730
     atom    7 type  1   force =     0.02779679   -0.00687803    0.04434395
     atom    8 type  1   force =    -0.01561568   -0.00250284    0.01142106

     Total force =     0.100742     Total SCF correction =     0.000617


     Computing stress (Cartesian axis) and pressure

          total   stress  (Ry/bohr**3)                   (kbar)     P=      104.35
   0.00130366  -0.00076672  -0.00107716          191.78     -112.79     -158.46
  -0.00076672   0.00064982   0.00073838         -112.79       95.59      108.62
  -0.00107716   0.00073838   0.00017450         -158.46      108.62       25.67


     BFGS Geometry Optimization

     number of scf cycles    =   1
     number of bfgs steps    =   0

     enthalpy new            =     -90.6594513770 Ry

     new trust radius        =       0.2142909093 bohr
     new conv_thr            =       0.0000010000 Ry

     new unit-cell volume =    560.77298 a.u.^3 (    83.09798 Ang^3 )
     density =      1.91836 g/cm^3

CELL_PARAMETERS (bohr)
  13.600464063  -0.694102266  -0.687677308
  -0.279183165   8.857063674   0.149121858
  -0.210421180   0.112648069   4.674952399

ATOMIC_POSITIONS (crystal)
C             0.4522419720        0.3329384864        0.4041476794
C             0.3863343675        0.4453056831        0.8865194444
C             0.9589676554        0.7345856457        0.1647337631
C             0.5736357131        0.1067773140        0.4520560075
C             0.7786189389        0.7926937123        1.0583836716
C             0.2470780377        0.6467831733        0.7977783128
C             0.0667765147        0.7048508250        0.6915980134
C             0.6395708006       -0.0056078399        0.9697051077



     Writing output data file ./pp.save/
     NEW-OLD atomic charge density approx. for the potential
     extrapolated charge   33.59619, renormalised to   32.00000

     total cpu time spent up to now is        6.7 secs

     Self-consistent Calculation

     iteration #  1     ecut=    40.00 Ry     beta= 0.50
     Davidson diagonalization with overlap
     ethr =  1.00E-06,  avg # of iterations = 11.0

     total cpu time spent up to now is        9.1 secs

     total energy              =     -90.57863050 Ry
     Harris-Foulkes estimate   =     -89.00591783 Ry
     estimated scf accuracy    <       0.11054892 Ry

     iteration #  2     ecut=    40.00 Ry     beta= 0.50
     Davidson diagonalization with overlap
     ethr =  3.45E-04,  avg # of iterations =  6.4

     total cpu time spent up to now is       10.5 secs

     total energy              =     -90.67436636 Ry
     Harris-Foulkes estimate   =     -90.77394128 Ry
     estimated scf accuracy    <       0.33369301 Ry

     iteration #  3     ecut=    40.00 Ry     beta= 0.50
     Davidson diagonalization with overlap
     ethr =  3.45E-04,  avg # of iterations =  3.8

     total cpu time spent up to now is       11.3 secs

     total energy              =     -90.71091095 Ry
     Harris-Foulkes estimate   =     -90.71592803 Ry
     estimated scf accuracy    <       0.01743976 Ry

     iteration #  4     ecut=    40.00 Ry     beta= 0.50
     Davidson diagonalization with overlap
     ethr =  5.45E-05,  avg # of iterations =  1.8

     total cpu time spent up to now is       11.8 secs

     total energy              =     -90.71084917 Ry
     Harris-Foulkes estimate   =     -90.71230315 Ry
     estimated scf accuracy    <       0.01057498 Ry

     iteration #  5     ecut=    40.00 Ry     beta= 0.50
     Davidson diagonalization with overlap
     ethr =  3.30E-05,  avg # of iterations =  1.0

     total cpu time spent up to now is       12.3 secs

     total energy              =     -90.70968576 Ry
     Harris-Foulkes estimate   =     -90.71146676 Ry
     estimated scf accuracy    <       0.00890424 Ry

     iteration #  6     ecut=    40.00 Ry     beta= 0.50
     Davidson diagonalization with overlap
     ethr =  2.78E-05,  avg # of iterations =  1.0

     total cpu time spent up to now is       12.7 secs

     total energy              =     -90.70852623 Ry
     Harris-Foulkes estimate   =     -90.71011794 Ry
     estimated scf accuracy    <       0.00357330 Ry

     iteration #  7     ecut=    40.00 Ry     beta= 0.50
     Davidson diagonalization with overlap
     ethr =  1.12E-05,  avg # of iterations =  3.7

     total cpu time spent up to now is       13.4 secs

     total energy              =     -90.70905377 Ry
     Harris-Foulkes estimate   =     -90.70906023 Ry
     estimated scf accuracy    <       0.00002496 Ry

     iteration #  8     ecut=    40.00 Ry     beta= 0.50
     Davidson diagonalization with overlap
     ethr =  7.80E-08,  avg # of iterations =  3.8

     total cpu time spent up to now is       14.4 secs

     total energy              =     -90.70907092 Ry
     Harris-Foulkes estimate   =     -90.70907766 Ry
     estimated scf accuracy    <       0.00001863 Ry

     iteration #  9     ecut=    40.00 Ry     beta= 0.50
     Davidson diagonalization with overlap
     ethr =  5.82E-08,  avg # of iterations =  1.8

     total cpu time spent up to now is       15.0 secs

     total energy              =     -90.70907201 Ry
     Harris-Foulkes estimate   =     -90.70907301 Ry
     estimated scf accuracy    <       0.00000290 Ry

     iteration # 10     ecut=    40.00 Ry     beta= 0.50
     Davidson diagonalization with overlap
     ethr =  9.05E-09,  avg # of iterations =  2.5

     total cpu time spent up to now is       15.6 secs

     End of self-consistent calculation

          k = 0.0000 0.0000 0.0000 (  2279 PWs)   bands (ev):

   -13.8922 -12.6868 -11.9109  -8.7524  -8.1574  -3.7823  -2.9815  -1.1240
    -0.8302  -0.6548  -0.5263   0.2392   0.7801   1.2780   4.0202   4.5946
     7.4336   9.2549   9.6072  10.2545

          k = 0.0351-0.0108 0.7059 (  2275 PWs)   bands (ev):

   -12.8009 -11.6703 -10.8505  -8.1521  -7.2246  -4.2409  -3.6772  -3.0244
    -2.5359  -1.8044  -0.5765   0.0448   0.1258   0.7240   3.8048   4.8025
     5.5055   6.3929   9.2042  10.3665

          k =-0.0703 0.0216-1.4118 (  2286 PWs)   bands (ev):

    -9.9466  -9.6209  -9.2599  -8.6125  -7.6563  -6.8817  -5.0941  -5.0047
    -3.1517  -3.1458  -2.1633   1.8091   2.3818   2.5667   3.3625   3.4386
     4.8056   5.0392   7.0039   8.5705

          k =-0.0372-0.7447 0.0163 (  2294 PWs)   bands (ev):

   -13.5569 -13.1421 -11.4973  -9.9993  -6.4287  -5.4158  -2.3710  -1.4323
    -1.3071  -0.4934  -0.3132   0.8121   1.0432   1.6273   3.3378   5.7332
     7.7737   8.4231   9.1300  11.1809

          k =-0.0020-0.7555 0.7222 (  2273 PWs)   bands (ev):

   -12.4981 -12.0591 -10.5114  -9.0868  -6.0772  -4.8659  -3.9031  -2.7053
    -2.4703  -1.5193  -1.1276  -0.8722  -0.0964   2.6655   3.7247   4.6099
     5.5688   6.7812   8.0219  10.9455

          k =-0.1075-0.7231-1.3955 (  2276 PWs)   bands (ev):

    -9.6448  -9.5993  -9.4914  -8.4479  -7.8280  -6.9254  -5.8187  -4.4453
    -3.2466  -2.9585  -2.1137   1.5384   2.1102   2.4288   3.0090   3.5937
     4.6104   5.6653   7.8123   8.8370

          k =-0.4859-0.0150-0.0215 (  2282 PWs)   bands (ev):

   -13.7723 -13.1113 -11.2487  -9.8643  -6.5567  -5.6091  -1.4555  -1.3846
    -1.0669  -0.5342  -0.2752   0.5124   0.8101   1.0963   2.1742   6.3973
     7.7499   9.0186   9.4477  10.0692

          k =-0.4507-0.0257 0.6844 (  2276 PWs)   bands (ev):

   -12.6958 -12.0338 -10.2825  -8.9709  -6.2010  -4.9763  -3.9513  -2.7199
    -2.3767  -1.5261  -0.8610  -0.2881   0.1765   1.5584   2.8501   4.6901
     5.7560   7.2511   8.4957  10.7255

          k =-0.5562 0.0066-1.4333 (  2270 PWs)   bands (ev):

    -9.8002  -9.5960  -9.5764  -8.4519  -7.6480  -6.7616  -5.7160  -4.4402
    -3.2866  -3.0437  -2.2015   1.7607   2.4269   2.4341   3.2271   3.6701
     4.8652   5.0607   7.0176   8.1225

          k =-0.5231-0.7596-0.0052 (  2294 PWs)   bands (ev):

   -13.6578 -12.7415 -12.1678  -8.7370  -8.1916  -3.6345  -2.9016  -2.6535
    -0.4883  -0.3279   0.1727   0.5896   0.7592   1.2442   3.7264   5.4660
     7.4057   8.8195   9.6206  11.1875

          k =-0.4879-0.7704 0.7007 (  2276 PWs)   bands (ev):

   -12.5810 -11.7315 -11.0783  -8.1524  -7.2286  -4.1945  -3.6174  -3.0476
    -2.4808  -1.8092  -1.4008  -0.5897   0.7354   1.7107   3.7944   4.8359
     5.7724   6.2648   8.8021  10.3553

          k =-0.5933-0.7381-1.4170 (  2258 PWs)   bands (ev):

    -9.7647  -9.5140  -9.3658  -8.5990  -7.7978  -7.0450  -5.1758  -4.9848
    -3.1209  -3.1021  -2.0738   1.4379   2.1531   2.5323   3.2748   3.3291
     4.7783   5.4881   7.7767   8.5085

     the Fermi energy is     4.9502 ev

!    total energy              =     -90.70907247 Ry
     Harris-Foulkes estimate   =     -90.70907263 Ry
     estimated scf accuracy    <       0.00000027 Ry

     The total energy is the sum of the following terms:

     one-electron contribution =     -42.34279055 Ry
     hartree contribution      =      34.92704791 Ry
     xc contribution           =     -27.50575233 Ry
     ewald contribution        =     -55.78755862 Ry
     smearing contrib. (-TS)   =      -0.00001887 Ry

     convergence has been achieved in  10 iterations

     Forces acting on atoms (cartesian axes, Ry/au):

     atom    1 type  1   force =    -0.00800339    0.00441877    0.02560470
     atom    2 type  1   force =    -0.01525790    0.01534511   -0.04860684
     atom    3 type  1   force =     0.00332561    0.00712082   -0.02465976
     atom    4 type  1   force =     0.00822114   -0.00449355   -0.02555125
     atom    5 type  1   force =    -0.00849276    0.05624905    0.00665595
     atom    6 type  1   force =     0.00952732   -0.05658385   -0.00645630
     atom    7 type  1   force =    -0.00389483   -0.00695637    0.02451496
     atom    8 type  1   force =     0.01457482   -0.01509998    0.04849853

     Total force =     0.122688     Total SCF correction =     0.000664


     Computing stress (Cartesian axis) and pressure

          total   stress  (Ry/bohr**3)                   (kbar)     P=      -48.09
  -0.00020268   0.00030017  -0.00037128          -29.81       44.16      -54.62
   0.00030017  -0.00033957   0.00015352           44.16      -49.95       22.58
  -0.00037128   0.00015352  -0.00043852          -54.62       22.58      -64.51


     number of scf cycles    =   2
     number of bfgs steps    =   1

     enthalpy old            =     -90.6594513770 Ry
     enthalpy new            =     -90.7090343487 Ry

     CASE: enthalpy_new < enthalpy_old

     new trust radius        =       0.1080731120 bohr
     new conv_thr            =       0.0000005658 Ry

     new unit-cell volume =    553.77569 a.u.^3 (    82.06109 Ang^3 )
     density =      1.94260 g/cm^3

CELL_PARAMETERS (bohr)
  13.660274635  -0.667196856  -0.923372247
  -0.258342802   8.820324307   0.234397833
  -0.295365802   0.158580157   4.626204963

ATOMIC_POSITIONS (crystal)
C             0.4519099226        0.3329997725        0.4109559986
C             0.3854802221        0.4471285609        0.8751352553
C             0.9586211395        0.7356123317        0.1564528486
C             0.5739878523        0.1067133672        0.4452563823
C             0.7785888940        0.7992213811        1.0610147486
C             0.2471775698        0.6402307490        0.7951893332
C             0.0670869808        0.7038401036        0.6998468264
C             0.6403714189       -0.0074192660        0.9810706070



     Writing output data file ./pp.save/
     NEW-OLD atomic charge density approx. for the potential
     extrapolated charge   31.59567, renormalised to   32.00000

     total cpu time spent up to now is       15.7 secs

     Self-consistent Calculation

     iteration #  1     ecut=    40.00 Ry     beta= 0.50
     Davidson diagonalization with overlap
     ethr =  1.00E-06,  avg # of iterations =  8.9

     total cpu time spent up to now is       17.9 secs

     total energy              =     -90.71328515 Ry
     Harris-Foulkes estimate   =     -91.16635815 Ry
     estimated scf accuracy    <       0.01273052 Ry

     iteration #  2     ecut=    40.00 Ry     beta= 0.50
     Davidson diagonalization with overlap
     ethr =  3.98E-05,  avg # of iterations =  4.3

     total cpu time spent up to now is       18.9 secs

     total energy              =     -90.71944201 Ry
     Harris-Foulkes estimate   =     -90.72979846 Ry
     estimated scf accuracy    <       0.03393572 Ry

     iteration #  3     ecut=    40.00 Ry     beta= 0.50
     Davidson diagonalization with overlap
     ethr =  3.98E-05,  avg # of iterations =  3.0

     total cpu time spent up to now is       19.7 secs

     total energy              =     -90.72349170 Ry
     Harris-Foulkes estimate   =     -90.72381346 Ry
     estimated scf accuracy    <       0.00096776 Ry

     iteration #  4     ecut=    40.00 Ry     beta= 0.50
     Davidson diagonalization with overlap
     ethr =  3.02E-06,  avg # of iterations =  4.5

     total cpu time spent up to now is       20.6 secs

     total energy              =     -90.72340555 Ry
     Harris-Foulkes estimate   =     -90.72371918 Ry
     estimated scf accuracy    <       0.00165450 Ry

     iteration #  5     ecut=    40.00 Ry     beta= 0.50
     Davidson diagonalization with overlap
     ethr =  3.02E-06,  avg # of iterations =  2.1

     total cpu time spent up to now is       21.2 secs

     total energy              =     -90.72347870 Ry
     Harris-Foulkes estimate   =     -90.72361984 Ry
     estimated scf accuracy    <       0.00057661 Ry

     iteration #  6     ecut=    40.00 Ry     beta= 0.50
     Davidson diagonalization with overlap
     ethr =  1.80E-06,  avg # of iterations =  1.3

     total cpu time spent up to now is       21.8 secs

     total energy              =     -90.72353015 Ry
     Harris-Foulkes estimate   =     -90.72354115 Ry
     estimated scf accuracy    <       0.00003369 Ry

     iteration #  7     ecut=    40.00 Ry     beta= 0.50
     Davidson diagonalization with overlap
     ethr =  1.05E-07,  avg # of iterations =  3.2

     total cpu time spent up to now is       22.6 secs

     total energy              =     -90.72353758 Ry
     Harris-Foulkes estimate   =     -90.72353985 Ry
     estimated scf accuracy    <       0.00000657 Ry

     iteration #  8     ecut=    40.00 Ry     beta= 0.50
     Davidson diagonalization with overlap
     ethr =  2.05E-08,  avg # of iterations =  2.3

     total cpu time spent up to now is       23.3 secs

     End of self-consistent calculation

          k = 0.0000 0.0000 0.0000 (  2279 PWs)   bands (ev):

   -13.9280 -12.6278 -12.0471  -8.6640  -8.2975  -3.8839  -2.9007  -1.1457
    -0.7343  -0.6964  -0.3459   0.4312   0.7560   1.4909   4.1831   4.6259
     7.6379   9.3039   9.8658  10.5440

          k = 0.0475-0.0176 0.7151 (  2275 PWs)   bands (ev):

   -12.8095 -11.6502 -10.8888  -8.2150  -7.1496  -4.0911  -3.7903  -2.8862
    -2.5006  -1.7220  -0.5341   0.0443   0.1214   0.8371   3.9460   4.8110
     5.6481   6.4961   9.5637  10.5330

          k =-0.0950 0.0352-1.4302 (  2286 PWs)   bands (ev):

    -9.8952  -9.4932  -9.3589  -8.4398  -7.6198  -6.8297  -5.3630  -4.8085
    -3.1787  -2.9904  -2.2722   1.8045   2.4434   2.6024   3.4285   3.5542
     4.9570   5.1299   7.1650   8.7502

          k =-0.0350-0.7480 0.0234 (  2294 PWs)   bands (ev):

   -13.5959 -13.1413 -11.5612 -10.0123  -6.4881  -5.4495  -2.3854  -1.4225
    -1.2945  -0.3394  -0.2155   1.0383   1.1497   1.6265   3.4078   5.9309
     8.0278   8.5904   9.2842  11.5517

          k = 0.0125-0.7656 0.7385 (  2273 PWs)   bands (ev):

   -12.5319 -12.0029 -10.6139  -8.9960  -6.1846  -4.8150  -3.7965  -2.5112
    -2.2817  -1.7514  -1.1443  -0.7533  -0.0411   2.6451   3.8581   4.7323
     5.6758   6.9084   8.2906  11.3044

          k =-0.1299-0.7128-1.4068 (  2276 PWs)   bands (ev):

    -9.6662  -9.5987  -9.2950  -8.3744  -7.8123  -6.9849  -5.5843  -4.4641
    -3.2756  -3.2310  -1.9569   1.5350   2.2120   2.5652   3.1292   3.5317
     4.7931   5.7098   7.8950   9.1144

          k =-0.4846-0.0134-0.0305 (  2282 PWs)   bands (ev):

   -13.8128 -13.1030 -11.3328  -9.8730  -6.6005  -5.6365  -1.4481  -1.3860
    -1.0550  -0.3785  -0.1730   0.5149   1.0410   1.1980   2.2153   6.6052
     8.0063   9.2885   9.5248  10.1050

          k =-0.4371-0.0310 0.6846 (  2276 PWs)   bands (ev):

   -12.7253 -11.9760 -10.4061  -8.8753  -6.2950  -4.9074  -3.8561  -2.5131
    -2.2105  -1.7621  -0.7548  -0.2782   0.2325   1.5435   2.9867   4.7890
     5.8831   7.3953   8.7077  11.0730

          k =-0.5796 0.0218-1.4607 (  2270 PWs)   bands (ev):

    -9.8565  -9.5571  -9.3563  -8.3812  -7.6747  -6.8273  -5.4755  -4.4614
    -3.3152  -3.2932  -2.0381   1.8130   2.4268   2.5739   3.3665   3.6026
     4.9785   5.1820   7.1596   8.5822

          k =-0.5196-0.7614-0.0071 (  2294 PWs)   bands (ev):

   -13.6960 -12.6768 -12.2923  -8.6532  -8.3470  -3.7318  -2.8188  -2.6608
    -0.3097  -0.2896   0.3620   0.5205   0.7384   1.4615   3.9325   5.5224
     7.6092   9.1189   9.8906  11.3852

          k =-0.4721-0.7790 0.7080 (  2276 PWs)   bands (ev):

   -12.5926 -11.7243 -11.0869  -8.2310  -7.1584  -4.0208  -3.7490  -2.8954
    -2.4525  -1.7236  -1.3716  -0.5605   0.7342   1.7308   3.9548   4.9275
     5.8847   6.3849   9.1132  10.6283

          k =-0.6145-0.7261-1.4373 (  2258 PWs)   bands (ev):

    -9.7014  -9.5035  -9.3450  -8.4479  -7.7471  -6.9826  -5.4476  -4.7777
    -3.1600  -2.9596  -2.1919   1.4917   2.2191   2.6126   3.2037   3.4603
     4.9055   5.6226   7.9019   9.0155

     the Fermi energy is     5.0469 ev

!    total energy              =     -90.72353808 Ry
     Harris-Foulkes estimate   =     -90.72353832 Ry
     estimated scf accuracy    <       0.00000041 Ry

     The total energy is the sum of the following terms:

     one-electron contribution =     -43.26332888 Ry
     hartree contribution      =      35.51465370 Ry
     xc contribution           =     -27.63175515 Ry
     ewald contribution        =     -55.34320870 Ry
     smearing contrib. (-TS)   =       0.00010094 Ry

     convergence has been achieved in   8 iterations

     Forces acting on atoms (cartesian axes, Ry/au):

     atom    1 type  1   force =     0.00683344   -0.00539735   -0.02926445
     atom    2 type  1   force =     0.00914473   -0.01437344   -0.00768521
     atom    3 type  1   force =     0.01167501    0.00531711   -0.00438542
     atom    4 type  1   force =    -0.00694204    0.00554957    0.02926760
     atom    5 type  1   force =     0.02612219    0.01865128    0.01066313
     atom    6 type  1   force =    -0.02724364   -0.01806920   -0.01071646
     atom    7 type  1   force =    -0.01089403   -0.00551011    0.00437804
     atom    8 type  1   force =    -0.00869565    0.01383214    0.00774278

     Total force =     0.072274     Total SCF correction =     0.001074


     Computing stress (Cartesian axis) and pressure

          total   stress  (Ry/bohr**3)                   (kbar)     P=        0.20
   0.00005700   0.00003726   0.00002092            8.39        5.48        3.08
   0.00003726  -0.00007520  -0.00013642            5.48      -11.06      -20.07
   0.00002092  -0.00013642   0.00002237            3.08      -20.07        3.29


     number of scf cycles    =   3
     number of bfgs steps    =   2

     enthalpy old            =     -90.7090343487 Ry
     enthalpy new            =     -90.7235004357 Ry

     CASE: enthalpy_new < enthalpy_old

     new trust radius        =       0.0399718196 bohr
     new conv_thr            =       0.0000002927 Ry

     new unit-cell volume =    552.80146 a.u.^3 (    81.91672 Ang^3 )
     density =      1.94602 g/cm^3

CELL_PARAMETERS (bohr)
  13.688678049  -0.650800893  -0.956807553
  -0.246553851   8.798297652   0.219352166
  -0.307605298   0.150689726   4.620715487

ATOMIC_POSITIONS (crystal)
C             0.4524354784        0.3323430077        0.4060020931
C             0.3860509902        0.4458212804        0.8714167165
C             0.9594650655        0.7364047231        0.1540821540
C             0.5734574281        0.1073866655        0.4502138709
C             0.7805601350        0.8025509208        1.0637002834
C             0.2451324159        0.6369603807        0.7925083371
C             0.0662967183        0.7030301708        0.7022059543
C             0.6398257686       -0.0061701489        0.9847925906



     Writing output data file ./pp.save/
     NEW-OLD atomic charge density approx. for the potential
     extrapolated charge   31.94361, renormalised to   32.00000

     total cpu time spent up to now is       23.4 secs

     Self-consistent Calculation

     iteration #  1     ecut=    40.00 Ry     beta= 0.50
     Davidson diagonalization with overlap
     ethr =  1.00E-06,  avg # of iterations =  5.9

     total cpu time spent up to now is       25.2 secs

     total energy              =     -90.72767038 Ry
     Harris-Foulkes estimate   =     -90.79063894 Ry
     estimated scf accuracy    <       0.00142005 Ry

     iteration #  2     ecut=    40.00 Ry     beta= 0.50
     Davidson diagonalization with overlap
     ethr =  4.44E-06,  avg # of iterations =  3.2

     total cpu time spent up to now is       26.3 secs

     total energy              =     -90.72799440 Ry
     Harris-Foulkes estimate   =     -90.72846014 Ry
     estimated scf accuracy    <       0.00123714 Ry

     iteration #  3     ecut=    40.00 Ry     beta= 0.50
     Davidson diagonalization with overlap
     ethr =  3.87E-06,  avg # of iterations =  2.0

     total cpu time spent up to now is       27.0 secs

     total energy              =     -90.72816381 Ry
     Harris-Foulkes estimate   =     -90.72824545 Ry
     estimated scf accuracy    <       0.00025267 Ry

     iteration #  4     ecut=    40.00 Ry     beta= 0.50
     Davidson diagonalization with overlap
     ethr =  7.90E-07,  avg # of iterations =  2.6

     total cpu time spent up to now is       27.8 secs

     total energy              =     -90.72816946 Ry
     Harris-Foulkes estimate   =     -90.72826640 Ry
     estimated scf accuracy    <       0.00056308 Ry

     iteration #  5     ecut=    40.00 Ry     beta= 0.50
     Davidson diagonalization with overlap
     ethr =  7.90E-07,  avg # of iterations =  1.3

     total cpu time spent up to now is       28.4 secs

     total energy              =     -90.72821731 Ry
     Harris-Foulkes estimate   =     -90.72822804 Ry
     estimated scf accuracy    <       0.00004180 Ry

     iteration #  6     ecut=    40.00 Ry     beta= 0.50
     Davidson diagonalization with overlap
     ethr =  1.31E-07,  avg # of iterations =  2.2

     total cpu time spent up to now is       29.2 secs

     total energy              =     -90.72822347 Ry
     Harris-Foulkes estimate   =     -90.72822491 Ry
     estimated scf accuracy    <       0.00000509 Ry

     iteration #  7     ecut=    40.00 Ry     beta= 0.50
     Davidson diagonalization with overlap
     ethr =  1.59E-08,  avg # of iterations =  2.4

     total cpu time spent up to now is       30.1 secs

     total energy              =     -90.72822449 Ry
     Harris-Foulkes estimate   =     -90.72822455 Ry
     estimated scf accuracy    <       0.00000037 Ry

     iteration #  8     ecut=    40.00 Ry     beta= 0.50
     Davidson diagonalization with overlap
     ethr =  1.16E-09,  avg # of iterations =  2.3

     total cpu time spent up to now is       30.9 secs

     End of self-consistent calculation

          k = 0.0000 0.0000 0.0000 (  2279 PWs)   bands (ev):

   -13.9657 -12.6863 -12.0248  -8.6825  -8.2996  -3.8465  -2.8870  -1.1866
    -0.7641  -0.6537  -0.3980   0.4576   0.7093   1.4543   4.1861   4.6886
     7.6585   9.2954   9.9208  10.5553

          k = 0.0493-0.0165 0.7161 (  2275 PWs)   bands (ev):

   -12.8452 -11.6992 -10.8701  -8.2315  -7.1471  -4.1076  -3.7938  -2.8441
    -2.5940  -1.7021  -0.5517   0.0143   0.1256   0.8445   3.9631   4.8221
     5.6763   6.5276   9.5903  10.5882

          k =-0.0985 0.0329-1.4323 (  2286 PWs)   bands (ev):

    -9.8884  -9.5665  -9.3504  -8.4986  -7.6125  -6.8262  -5.4081  -4.7673
    -3.2062  -3.0411  -2.2480   1.8430   2.4409   2.5716   3.4054   3.5928
     4.9811   5.1066   7.2304   8.7910

          k =-0.0341-0.7497 0.0222 (  2294 PWs)   bands (ev):

   -13.6498 -13.1597 -11.5615 -10.0203  -6.5230  -5.4052  -2.3997  -1.3745
    -1.3208  -0.3927  -0.2129   0.9534   1.1600   1.6320   3.3839   6.0391
     8.0503   8.6099   9.3280  11.6721

          k = 0.0152-0.7662 0.7383 (  2273 PWs)   bands (ev):

   -12.5809 -12.0214 -10.6162  -8.9950  -6.2112  -4.7770  -3.8484  -2.5725
    -2.2543  -1.7139  -1.1567  -0.7997  -0.0573   2.6422   3.8576   4.7423
     5.7312   6.9498   8.3222  11.4003

          k =-0.1326-0.7168-1.4101 (  2276 PWs)   bands (ev):

    -9.6684  -9.6190  -9.3310  -8.4227  -7.8312  -6.9758  -5.5500  -4.5354
    -3.2731  -3.2206  -1.9852   1.5689   2.2155   2.5257   3.1613   3.5125
     4.8102   5.6820   7.9839   9.1672

          k =-0.4837-0.0128-0.0318 (  2282 PWs)   bands (ev):

   -13.8564 -13.1290 -11.3340  -9.8911  -6.6291  -5.5872  -1.3953  -1.3799
    -1.1067  -0.4301  -0.1574   0.4936   0.9563   1.2062   2.2454   6.6873
     8.0312   9.3430   9.5237  10.0979

          k =-0.4345-0.0292 0.6844 (  2276 PWs)   bands (ev):

   -12.7668 -11.9993 -10.4096  -8.8831  -6.3145  -4.8680  -3.9055  -2.5683
    -2.1859  -1.7336  -0.8001  -0.2665   0.1930   1.5423   3.0181   4.7952
     5.9230   7.4367   8.7305  11.1305

          k =-0.5823 0.0202-1.4641 (  2270 PWs)   bands (ev):

    -9.8532  -9.6122  -9.3631  -8.4276  -7.6923  -6.8207  -5.4472  -4.5297
    -3.3087  -3.2853  -2.0669   1.8419   2.4472   2.5752   3.3691   3.5855
     4.9424   5.1925   7.2285   8.7135

          k =-0.5178-0.7625-0.0096 (  2294 PWs)   bands (ev):

   -13.7430 -12.7322 -12.2616  -8.6761  -8.3448  -3.6898  -2.8090  -2.6730
    -0.3636  -0.3502   0.3797   0.5431   0.6949   1.4241   3.9750   5.5639
     7.6311   9.1718   9.9429  11.5007

          k =-0.4685-0.7789 0.7065 (  2276 PWs)   bands (ev):

   -12.6373 -11.7630 -11.0677  -8.2496  -7.1536  -4.0439  -3.7464  -2.8586
    -2.5428  -1.7035  -1.3789  -0.5760   0.6867   1.7415   3.9839   4.9352
     5.9158   6.4188   9.1582  10.7263

          k =-0.6164-0.7295-1.4419 (  2258 PWs)   bands (ev):

    -9.7004  -9.5370  -9.3698  -8.5045  -7.7429  -6.9774  -5.4909  -4.7402
    -3.1900  -3.0055  -2.1673   1.5178   2.2389   2.5704   3.1765   3.4979
     4.8480   5.6645   7.9808   9.1268

     the Fermi energy is     5.0444 ev

!    total energy              =     -90.72822455 Ry
     Harris-Foulkes estimate   =     -90.72822455 Ry
     estimated scf accuracy    <       0.00000004 Ry

     The total energy is the sum of the following terms:

     one-electron contribution =     -43.52100609 Ry
     hartree contribution      =      35.65142298 Ry
     xc contribution           =     -27.66374058 Ry
     ewald contribution        =     -55.19490254 Ry
     smearing contrib. (-TS)   =       0.00000168 Ry

     convergence has been achieved in   8 iterations

     Forces acting on atoms (cartesian axes, Ry/au):

     atom    1 type  1   force =    -0.00438089    0.00622859   -0.01395519
     atom    2 type  1   force =    -0.00257420   -0.00487408   -0.01400702
     atom    3 type  1   force =     0.00508253    0.00655925    0.00224518
     atom    4 type  1   force =     0.00443539   -0.00632771    0.01392826
     atom    5 type  1   force =     0.01184602    0.02344271    0.00678543
     atom    6 type  1   force =    -0.01025031   -0.02422720   -0.00665056
     atom    7 type  1   force =    -0.00602696   -0.00625499   -0.00236772
     atom    8 type  1   force =     0.00186843    0.00545343    0.01402163

     Total force =     0.050892     Total SCF correction =     0.000221


     Computing stress (Cartesian axis) and pressure

          total   stress  (Ry/bohr**3)                   (kbar)     P=       12.49
   0.00016843  -0.00001968   0.00005503           24.78       -2.90        8.10
  -0.00001968  -0.00003021  -0.00014536           -2.90       -4.44      -21.38
   0.00005503  -0.00014536   0.00011641            8.10      -21.38       17.12


     number of scf cycles    =   4
     number of bfgs steps    =   3

     enthalpy old            =     -90.7235004357 Ry
     enthalpy new            =     -90.7281869665 Ry

     CASE: enthalpy_new < enthalpy_old

     new trust radius        =       0.0599026907 bohr
     new conv_thr            =       0.0000002423 Ry

     new unit-cell volume =    555.19820 a.u.^3 (    82.27188 Ang^3 )
     density =      1.93762 g/cm^3

CELL_PARAMETERS (bohr)
  13.771614531  -0.644700176  -0.988103843
  -0.241310403   8.773680732   0.185834385
  -0.318838235   0.133009181   4.626027388

ATOMIC_POSITIONS (crystal)
C             0.4525056196        0.3324901580        0.4002092128
C             0.3862426564        0.4444488573        0.8646775668
C             0.9604235733        0.7378363949        0.1519148424
C             0.5733897836        0.1072409490        0.4560039512
C             0.7829160724        0.8082781128        1.0674370612
C             0.2428467262        0.6311928594        0.7887945157
C             0.0653047075        0.7016180494        0.7043427614
C             0.6395948610       -0.0047783807        0.9915420884



     Writing output data file ./pp.save/
     NEW-OLD atomic charge density approx. for the potential
     extrapolated charge   32.13814, renormalised to   32.00000

     total cpu time spent up to now is       31.0 secs

     Self-consistent Calculation

     iteration #  1     ecut=    40.00 Ry     beta= 0.50
     Davidson diagonalization with overlap
     ethr =  1.00E-06,  avg # of iterations =  7.4

     total cpu time spent up to now is       33.5 secs

     total energy              =     -90.73203260 Ry
     Harris-Foulkes estimate   =     -90.58143246 Ry
     estimated scf accuracy    <       0.00256919 Ry

     iteration #  2     ecut=    40.00 Ry     beta= 0.50
     Davidson diagonalization with overlap
     ethr =  8.03E-06,  avg # of iterations =  5.1

     total cpu time spent up to now is       35.2 secs

     total energy              =     -90.73273934 Ry
     Harris-Foulkes estimate   =     -90.73458306 Ry
     estimated scf accuracy    <       0.00600864 Ry

     iteration #  3     ecut=    40.00 Ry     beta= 0.50
     Davidson diagonalization with overlap
     ethr =  8.03E-06,  avg # of iterations =  3.3

     total cpu time spent up to now is       36.4 secs

     total energy              =     -90.73351577 Ry
     Harris-Foulkes estimate   =     -90.73357577 Ry
     estimated scf accuracy    <       0.00018516 Ry

     iteration #  4     ecut=    40.00 Ry     beta= 0.50
     Davidson diagonalization with overlap
     ethr =  5.79E-07,  avg # of iterations =  2.3

     total cpu time spent up to now is       37.4 secs

     total energy              =     -90.73349913 Ry
     Harris-Foulkes estimate   =     -90.73354650 Ry
     estimated scf accuracy    <       0.00012735 Ry

     iteration #  5     ecut=    40.00 Ry     beta= 0.50
     Davidson diagonalization with overlap
     ethr =  3.98E-07,  avg # of iterations =  2.1

     total cpu time spent up to now is       38.3 secs

     total energy              =     -90.73348478 Ry
     Harris-Foulkes estimate   =     -90.73358098 Ry
     estimated scf accuracy    <       0.00062541 Ry

     iteration #  6     ecut=    40.00 Ry     beta= 0.50
     Davidson diagonalization with overlap
     ethr =  3.98E-07,  avg # of iterations =  1.8

     total cpu time spent up to now is       39.2 secs

     total energy              =     -90.73353272 Ry
     Harris-Foulkes estimate   =     -90.73353647 Ry
     estimated scf accuracy    <       0.00001214 Ry

     iteration #  7     ecut=    40.00 Ry     beta= 0.50
     Davidson diagonalization with overlap
     ethr =  3.79E-08,  avg # of iterations =  2.0

     total cpu time spent up to now is       40.2 secs

     total energy              =     -90.73353494 Ry
     Harris-Foulkes estimate   =     -90.73353499 Ry
     estimated scf accuracy    <       0.00000057 Ry

     iteration #  8     ecut=    40.00 Ry     beta= 0.50
     Davidson diagonalization with overlap
     ethr =  1.77E-09,  avg # of iterations =  2.2

     total cpu time spent up to now is       41.4 secs

     End of self-consistent calculation

          k = 0.0000 0.0000 0.0000 (  2279 PWs)   bands (ev):

   -14.0065 -12.7317 -12.0587  -8.7051  -8.3292  -3.8740  -2.9078  -1.2427
    -0.7905  -0.6670  -0.5199   0.4390   0.6213   1.3387   4.1462   4.6824
     7.6119   9.2376   9.8505  10.5207

          k = 0.0507-0.0138 0.7154 (  2275 PWs)   bands (ev):

   -12.8898 -11.7440 -10.9107  -8.2498  -7.1918  -4.1509  -3.8687  -2.8576
    -2.7035  -1.7730  -0.5849  -0.0463   0.1234   0.8054   3.9468   4.7754
     5.6232   6.4624   9.5877  10.5712

          k =-0.1014 0.0275-1.4308 (  2286 PWs)   bands (ev):

    -9.9233  -9.6292  -9.3818  -8.5734  -7.6788  -6.8835  -5.4891  -4.7371
    -3.2622  -3.1033  -2.2836   1.8576   2.3890   2.5017   3.3394   3.5827
     4.9364   5.0178   7.1766   8.7867

          k =-0.0338-0.7516 0.0193 (  2294 PWs)   bands (ev):

   -13.7054 -13.1823 -11.6094 -10.0269  -6.5745  -5.4272  -2.4321  -1.3853
    -1.3651  -0.5145  -0.2283   0.8479   1.0584   1.5698   3.3373   6.1035
     7.9985   8.5859   9.2645  11.7368

          k = 0.0169-0.7654 0.7347 (  2273 PWs)   bands (ev):

   -12.6359 -12.0513 -10.6622  -9.0107  -6.2524  -4.8251  -3.9338  -2.6721
    -2.2966  -1.7187  -1.1916  -0.8703  -0.1021   2.5862   3.8085   4.6858
     5.7343   6.9394   8.2774  11.4187

          k =-0.1352-0.7241-1.4115 (  2276 PWs)   bands (ev):

    -9.7162  -9.6357  -9.4028  -8.4773  -7.9123  -7.0356  -5.5445  -4.6381
    -3.3030  -3.2074  -2.0808   1.5567   2.1622   2.4791   3.1351   3.4497
     4.7740   5.5755   7.9345   9.1833

          k =-0.4809-0.0125-0.0328 (  2282 PWs)   bands (ev):

   -13.9038 -13.1571 -11.3899  -9.9042  -6.6680  -5.5989  -1.4015  -1.3934
    -1.1701  -0.5507  -0.1699   0.4220   0.8503   1.1024   2.2469   6.7168
     7.9817   9.2915   9.4802  10.0052

          k =-0.4303-0.0263 0.6826 (  2276 PWs)   bands (ev):

   -12.8167 -12.0317 -10.4623  -8.9061  -6.3426  -4.9103  -3.9913  -2.6614
    -2.2341  -1.7484  -0.8698  -0.2712   0.1281   1.4967   3.0027   4.7326
     5.9020   7.4054   8.6807  11.1141

          k =-0.5823 0.0150-1.4636 (  2270 PWs)   bands (ev):

    -9.8945  -9.6563  -9.4139  -8.4803  -7.7770  -6.8858  -5.4453  -4.6323
    -3.3315  -3.2674  -2.1611   1.8445   2.4202   2.5245   3.3462   3.5199
     4.8333   5.1381   7.1747   8.8063

          k =-0.5147-0.7642-0.0135 (  2294 PWs)   bands (ev):

   -13.7925 -12.7721 -12.2835  -8.7037  -8.3799  -3.7147  -2.8292  -2.6970
    -0.4854  -0.4294   0.3366   0.5152   0.6077   1.3097   3.9904   5.5600
     7.5849   9.1933   9.8705  11.5250

          k =-0.4641-0.7779 0.7019 (  2276 PWs)   bands (ev):

   -12.6902 -11.7989 -11.1008  -8.2745  -7.2004  -4.0908  -3.8192  -2.8730
    -2.6507  -1.7737  -1.4058  -0.6063   0.6157   1.6820   3.9868   4.9068
     5.8732   6.3613   9.1568  10.7175

          k =-0.6161-0.7367-1.4443 (  2258 PWs)   bands (ev):

    -9.7423  -9.5658  -9.4289  -8.5779  -7.8048  -7.0301  -5.5720  -4.7158
    -3.2514  -3.0671  -2.2038   1.4987   2.1976   2.5288   3.0919   3.4928
     4.7305   5.6240   7.9314   9.2085

     the Fermi energy is     4.9862 ev

!    total energy              =     -90.73353501 Ry
     Harris-Foulkes estimate   =     -90.73353505 Ry
     estimated scf accuracy    <       0.00000011 Ry

     The total energy is the sum of the following terms:

     one-electron contribution =     -43.66848500 Ry
     hartree contribution      =      35.66337776 Ry
     xc contribution           =     -27.65500640 Ry
     ewald contribution        =     -55.07339526 Ry
     smearing contrib. (-TS)   =      -0.00002611 Ry

     convergence has been achieved in   8 iterations

     Forces acting on atoms (cartesian axes, Ry/au):

     atom    1 type  1   force =    -0.00301203    0.00227422   -0.00673475
     atom    2 type  1   force =    -0.01130120    0.00001857   -0.00835838
     atom    3 type  1   force =    -0.00617730    0.00936329    0.00933389
     atom    4 type  1   force =     0.00291911   -0.00227864    0.00681334
     atom    5 type  1   force =     0.01133772    0.02116442    0.00386621
     atom    6 type  1   force =    -0.01198179   -0.02083623   -0.00390729
     atom    7 type  1   force =     0.00663280   -0.00947897   -0.00932442
     atom    8 type  1   force =     0.01158270   -0.00022665    0.00831139

     Total force =     0.046247     Total SCF correction =     0.000459


     Computing stress (Cartesian axis) and pressure

          total   stress  (Ry/bohr**3)                   (kbar)     P=        7.80
   0.00009864  -0.00000321   0.00002193           14.51       -0.47        3.23
  -0.00000321  -0.00003930  -0.00009064           -0.47       -5.78      -13.33
   0.00002193  -0.00009064   0.00009975            3.23      -13.33       14.67


     number of scf cycles    =   5
     number of bfgs steps    =   4

     enthalpy old            =     -90.7281869665 Ry
     enthalpy new            =     -90.7334972697 Ry

     CASE: enthalpy_new < enthalpy_old

     new trust radius        =       0.0896532386 bohr
     new conv_thr            =       0.0000002116 Ry

     new unit-cell volume =    558.01393 a.u.^3 (    82.68913 Ang^3 )
     density =      1.92784 g/cm^3

CELL_PARAMETERS (bohr)
  13.877006269  -0.632088089  -1.039448812
  -0.231162762   8.734608712   0.142905933
  -0.337515426   0.110582963   4.635895458

ATOMIC_POSITIONS (crystal)
C             0.4527026956        0.3322400790        0.3926282517
C             0.3856196113        0.4429267668        0.8560915349
C             0.9607476104        0.7405108005        0.1510773919
C             0.5731806867        0.1075058064        0.4636104786
C             0.7866316167        0.8167909886        1.0724189901
C             0.2390228904        0.6227679668        0.7838219977
C             0.0650644957        0.6989185829        0.7051566549
C             0.6402543931       -0.0033339911        1.0001167002



     Writing output data file ./pp.save/
     NEW-OLD atomic charge density approx. for the potential
     extrapolated charge   32.16147, renormalised to   32.00000

     total cpu time spent up to now is       41.4 secs

     Self-consistent Calculation

     iteration #  1     ecut=    40.00 Ry     beta= 0.50
     Davidson diagonalization with overlap
     ethr =  1.00E-06,  avg # of iterations =  7.8

     total cpu time spent up to now is       44.7 secs

     total energy              =     -90.73705113 Ry
     Harris-Foulkes estimate   =     -90.56161132 Ry
     estimated scf accuracy    <       0.00341501 Ry

     iteration #  2     ecut=    40.00 Ry     beta= 0.50
     Davidson diagonalization with overlap
     ethr =  1.07E-05,  avg # of iterations =  4.8

     total cpu time spent up to now is       46.7 secs

     total energy              =     -90.73790897 Ry
     Harris-Foulkes estimate   =     -90.74021084 Ry
     estimated scf accuracy    <       0.00720574 Ry

     iteration #  3     ecut=    40.00 Ry     beta= 0.50
     Davidson diagonalization with overlap
     ethr =  1.07E-05,  avg # of iterations =  3.8

     total cpu time spent up to now is       48.1 secs

     total energy              =     -90.73886138 Ry
     Harris-Foulkes estimate   =     -90.73895481 Ry
     estimated scf accuracy    <       0.00028432 Ry

     iteration #  4     ecut=    40.00 Ry     beta= 0.50
     Davidson diagonalization with overlap
     ethr =  8.88E-07,  avg # of iterations =  2.4

     total cpu time spent up to now is       49.4 secs

     total energy              =     -90.73888396 Ry
     Harris-Foulkes estimate   =     -90.73889959 Ry
     estimated scf accuracy    <       0.00005606 Ry

     iteration #  5     ecut=    40.00 Ry     beta= 0.50
     Davidson diagonalization with overlap
     ethr =  1.75E-07,  avg # of iterations =  2.0

     total cpu time spent up to now is       50.6 secs

     total energy              =     -90.73887967 Ry
     Harris-Foulkes estimate   =     -90.73890371 Ry
     estimated scf accuracy    <       0.00007814 Ry

     iteration #  6     ecut=    40.00 Ry     beta= 0.50
     Davidson diagonalization with overlap
     ethr =  1.75E-07,  avg # of iterations =  1.9

     total cpu time spent up to now is       51.8 secs

     total energy              =     -90.73888530 Ry
     Harris-Foulkes estimate   =     -90.73890852 Ry
     estimated scf accuracy    <       0.00015341 Ry

     iteration #  7     ecut=    40.00 Ry     beta= 0.50
     Davidson diagonalization with overlap
     ethr =  1.75E-07,  avg # of iterations =  1.1

     total cpu time spent up to now is       52.7 secs

     total energy              =     -90.73889705 Ry
     Harris-Foulkes estimate   =     -90.73889704 Ry
     estimated scf accuracy    <       0.00000097 Ry

     iteration #  8     ecut=    40.00 Ry     beta= 0.50
     Davidson diagonalization with overlap
     ethr =  3.05E-09,  avg # of iterations =  3.2

     total cpu time spent up to now is       54.3 secs

     End of self-consistent calculation

          k = 0.0000 0.0000 0.0000 (  2279 PWs)   bands (ev):

   -14.0443 -12.7600 -12.0987  -8.7757  -8.3776  -3.9357  -2.9797  -1.3055
    -0.7992  -0.6850  -0.6099   0.3575   0.5896   1.3063   4.0673   4.7118
     7.4853   9.1644   9.8084  10.5205

          k = 0.0530-0.0103 0.7141 (  2275 PWs)   bands (ev):

   -12.9334 -11.7795 -10.9539  -8.3207  -7.2674  -4.2116  -3.9487  -2.8480
    -2.7989  -1.8083  -0.6818  -0.1243   0.1225   0.7765   3.9077   4.6810
     5.6027   6.4113   9.6055  10.5545

          k =-0.1060 0.0206-1.4282 (  2286 PWs)   bands (ev):

    -9.9661  -9.7111  -9.4641  -8.6074  -7.7576  -6.9153  -5.5505  -4.7059
    -3.3746  -3.2116  -2.3190   1.8210   2.3035   2.4273   3.2786   3.5707
     4.8388   4.9512   7.1329   8.9157

          k =-0.0332-0.7548 0.0156 (  2294 PWs)   bands (ev):

   -13.7600 -13.1957 -11.6336 -10.0836  -6.6855  -5.4580  -2.4627  -1.4793
    -1.4167  -0.6038  -0.2979   0.8474   0.9990   1.5401   3.2322   6.2657
     7.8751   8.5025   9.2078  11.8845

          k = 0.0198-0.7651 0.7297 (  2273 PWs)   bands (ev):

   -12.6924 -12.0742 -10.6932  -9.0779  -6.3599  -4.8877  -3.9972  -2.6968
    -2.3387  -1.7511  -1.2335  -0.9872  -0.1595   2.5234   3.7325   4.6030
     5.7772   6.9444   8.2321  11.4779

          k =-0.1393-0.7342-1.4126 (  2276 PWs)   bands (ev):

    -9.7919  -9.6722  -9.4822  -8.5588  -7.9475  -7.0662  -5.5391  -4.7514
    -3.3831  -3.2064  -2.2032   1.4964   2.0790   2.3958   3.1118   3.4149
     4.6826   5.4918   7.9071   9.3235

          k =-0.4775-0.0121-0.0345 (  2282 PWs)   bands (ev):

   -13.9480 -13.1773 -11.4266  -9.9697  -6.7609  -5.6103  -1.5001  -1.4080
    -1.2293  -0.6390  -0.2558   0.4051   0.8493   1.0405   2.2067   6.8327
     7.8611   9.2372   9.3531   9.8799

          k =-0.4245-0.0224 0.6796 (  2276 PWs)   bands (ev):

   -12.8660 -12.0581 -10.5051  -8.9819  -6.4308  -4.9633  -4.0538  -2.6776
    -2.2875  -1.7900  -0.9917  -0.2812   0.0562   1.4576   2.9687   4.6407
     5.9154   7.3775   8.6158  11.0919

          k =-0.5835 0.0085-1.4627 (  2270 PWs)   bands (ev):

    -9.9579  -9.7216  -9.4693  -8.5644  -7.8213  -6.9224  -5.4449  -4.7422
    -3.4013  -3.2616  -2.2818   1.8216   2.3152   2.4568   3.3174   3.4813
     4.7514   5.0540   7.1318   8.9856

          k =-0.5107-0.7669-0.0189 (  2294 PWs)   bands (ev):

   -13.8414 -12.7944 -12.3045  -8.7851  -8.4339  -3.7793  -2.9025  -2.7177
    -0.5762  -0.4967   0.2145   0.4734   0.5763   1.2803   4.0131   5.5776
     7.4593   9.2774   9.8260  11.5079

          k =-0.4577-0.7771 0.6952 (  2276 PWs)   bands (ev):

   -12.7443 -11.8254 -11.1294  -8.3553  -7.2795  -4.1539  -3.9004  -2.8603
    -2.7466  -1.8149  -1.4357  -0.6940   0.5287   1.6068   3.9845   4.8406
     5.8613   6.3172   9.1856  10.7227

          k =-0.6168-0.7463-1.4471 (  2258 PWs)   bands (ev):

    -9.7949  -9.6287  -9.5196  -8.6105  -7.8794  -7.0563  -5.6301  -4.6941
    -3.3728  -3.1743  -2.2404   1.4575   2.0898   2.4451   3.0306   3.4892
     4.6381   5.5474   7.8992   9.3874

     the Fermi energy is     4.9092 ev

!    total energy              =     -90.73889718 Ry
     Harris-Foulkes estimate   =     -90.73889730 Ry
     estimated scf accuracy    <       0.00000017 Ry

     The total energy is the sum of the following terms:

     one-electron contribution =     -43.74719227 Ry
     hartree contribution      =      35.63676037 Ry
     xc contribution           =     -27.65400169 Ry
     ewald contribution        =     -54.97445620 Ry
     smearing contrib. (-TS)   =      -0.00000739 Ry

     convergence has been achieved in   8 iterations

     Forces acting on atoms (cartesian axes, Ry/au):

     atom    1 type  1   force =    -0.01216040    0.00703342    0.00379490
     atom    2 type  1   force =    -0.01162576   -0.00202849   -0.00196942
     atom    3 type  1   force =     0.00212789    0.00437058    0.01306057
     atom    4 type  1   force =     0.01229370   -0.00735460   -0.00390148
     atom    5 type  1   force =     0.00449286    0.01829370    0.00079410
     atom    6 type  1   force =    -0.00082449   -0.02002345   -0.00061192
     atom    7 type  1   force =    -0.00449407   -0.00360512   -0.01319380
     atom    8 type  1   force =     0.01019027    0.00331396    0.00202705

     Total force =     0.043049     Total SCF correction =     0.001018


     Computing stress (Cartesian axis) and pressure

          total   stress  (Ry/bohr**3)                   (kbar)     P=        7.30
   0.00015299  -0.00004579   0.00001901           22.51       -6.74        2.80
  -0.00004579  -0.00001265  -0.00004356           -6.74       -1.86       -6.41
   0.00001901  -0.00004356   0.00000862            2.80       -6.41        1.27


     number of scf cycles    =   6
     number of bfgs steps    =   5

     enthalpy old            =     -90.7334972697 Ry
     enthalpy new            =     -90.7388592449 Ry

     CASE: enthalpy_new < enthalpy_old

     new trust radius        =       0.1341583002 bohr
     new conv_thr            =       0.0000002002 Ry

     new unit-cell volume =    561.93367 a.u.^3 (    83.26998 Ang^3 )
     density =      1.91440 g/cm^3

CELL_PARAMETERS (bohr)
  14.069064390  -0.634028318  -1.115599932
  -0.230569810   8.680442155   0.088098610
  -0.364170134   0.081497422   4.636188145

ATOMIC_POSITIONS (crystal)
C             0.4518664563        0.3324390400        0.3837013727
C             0.3842780182        0.4400118451        0.8456363242
C             0.9620172512        0.7441251687        0.1523086685
C             0.5740200093        0.1072772323        0.4725196775
C             0.7920689045        0.8298000792        1.0792172645
C             0.2338868214        0.6095919562        0.7770475331
C             0.0636162051        0.6953968265        0.7038812081
C             0.6414703340       -0.0003151480        1.0106099514



     Writing output data file ./pp.save/
     NEW-OLD atomic charge density approx. for the potential
     extrapolated charge   32.22321, renormalised to   32.00000

     total cpu time spent up to now is       54.3 secs

     Self-consistent Calculation

     iteration #  1     ecut=    40.00 Ry     beta= 0.50
     Davidson diagonalization with overlap
     ethr =  1.00E-06,  avg # of iterations =  9.2

     total cpu time spent up to now is       58.9 secs

     total energy              =     -90.73957106 Ry
     Harris-Foulkes estimate   =     -90.50120685 Ry
     estimated scf accuracy    <       0.00739536 Ry

     iteration #  2     ecut=    40.00 Ry     beta= 0.50
     Davidson diagonalization with overlap
     ethr =  2.31E-05,  avg # of iterations =  4.4

     total cpu time spent up to now is       61.2 secs

     total energy              =     -90.74122787 Ry
     Harris-Foulkes estimate   =     -90.74577986 Ry
     estimated scf accuracy    <       0.01384204 Ry

     iteration #  3     ecut=    40.00 Ry     beta= 0.50
     Davidson diagonalization with overlap
     ethr =  2.31E-05,  avg # of iterations =  3.4

     total cpu time spent up to now is       62.9 secs

     total energy              =     -90.74288497 Ry
     Harris-Foulkes estimate   =     -90.74357866 Ry
     estimated scf accuracy    <       0.00195612 Ry

     iteration #  4     ecut=    40.00 Ry     beta= 0.50
     Davidson diagonalization with overlap
     ethr =  6.11E-06,  avg # of iterations =  4.2

     total cpu time spent up to now is       64.8 secs

     total energy              =     -90.74276034 Ry
     Harris-Foulkes estimate   =     -90.74394010 Ry
     estimated scf accuracy    <       0.00756531 Ry

     iteration #  5     ecut=    40.00 Ry     beta= 0.50
     Davidson diagonalization with overlap
     ethr =  6.11E-06,  avg # of iterations =  2.8

     total cpu time spent up to now is       66.5 secs

     total energy              =     -90.74335761 Ry
     Harris-Foulkes estimate   =     -90.74337092 Ry
     estimated scf accuracy    <       0.00011174 Ry

     iteration #  6     ecut=    40.00 Ry     beta= 0.50
     Davidson diagonalization with overlap
     ethr =  3.49E-07,  avg # of iterations =  2.0

     total cpu time spent up to now is       67.9 secs

     total energy              =     -90.74337218 Ry
     Harris-Foulkes estimate   =     -90.74337424 Ry
     estimated scf accuracy    <       0.00000959 Ry

     iteration #  7     ecut=    40.00 Ry     beta= 0.50
     Davidson diagonalization with overlap
     ethr =  3.00E-08,  avg # of iterations =  2.5

     total cpu time spent up to now is       69.5 secs

     total energy              =     -90.74337395 Ry
     Harris-Foulkes estimate   =     -90.74337468 Ry
     estimated scf accuracy    <       0.00000326 Ry

     iteration #  8     ecut=    40.00 Ry     beta= 0.50
     Davidson diagonalization with overlap
     ethr =  1.02E-08,  avg # of iterations =  1.2

     total cpu time spent up to now is       70.7 secs

     total energy              =     -90.74337441 Ry
     Harris-Foulkes estimate   =     -90.74337442 Ry
     estimated scf accuracy    <       0.00000041 Ry

     iteration #  9     ecut=    40.00 Ry     beta= 0.50
     Davidson diagonalization with overlap
     ethr =  1.27E-09,  avg # of iterations =  2.2

     total cpu time spent up to now is       72.2 secs

     End of self-consistent calculation

          k = 0.0000 0.0000 0.0000 (  2279 PWs)   bands (ev):

   -14.0841 -12.8083 -12.1804  -8.8328  -8.4003  -4.0130  -3.0322  -1.3772
    -0.8109  -0.7447  -0.7134   0.3548   0.5038   1.1743   3.9586   4.6943
     7.4381   9.0869   9.7148  10.5177

          k = 0.0564-0.0058 0.7145 (  2275 PWs)   bands (ev):

   -12.9746 -11.8320 -11.0305  -8.3691  -7.2979  -4.2720  -4.0581  -2.9084
    -2.8513  -1.9416  -0.7177  -0.2018   0.1337   0.7479   3.8708   4.5549
     5.5694   6.3049   9.6325  10.5478

          k =-0.1128 0.0115-1.4290 (  2286 PWs)   bands (ev):

    -9.9879  -9.7556  -9.5391  -8.6113  -7.9062  -7.0270  -5.6210  -4.6876
    -3.4652  -3.2928  -2.3459   1.8122   2.2698   2.3826   3.2273   3.4997
     4.6804   4.8899   6.9850   9.0435

          k =-0.0334-0.7594 0.0107 (  2294 PWs)   bands (ev):

   -13.8181 -13.2240 -11.7231 -10.0899  -6.7583  -5.5419  -2.4927  -1.5462
    -1.4927  -0.7060  -0.3152   0.7898   0.8441   1.4317   3.1522   6.3980
     7.8020   8.4838   9.1524  11.9111

          k = 0.0230-0.7651 0.7252 (  2273 PWs)   bands (ev):

   -12.7496 -12.1041 -10.7807  -9.0859  -6.4349  -4.9624  -4.0795  -2.7693
    -2.4506  -1.8127  -1.2620  -1.0251  -0.2212   2.3918   3.6847   4.5189
     5.7873   6.9305   8.2155  11.4821

          k =-0.1462-0.7478-1.4182 (  2276 PWs)   bands (ev):

    -9.8665  -9.6777  -9.4991  -8.6827  -7.9866  -7.1760  -5.5572  -4.8818
    -3.4312  -3.1783  -2.3365   1.4596   2.0471   2.3593   3.0341   3.3596
     4.5345   5.3950   7.7598   9.4715

          k =-0.4714-0.0121-0.0368 (  2282 PWs)   bands (ev):

   -13.9940 -13.2156 -11.5355  -9.9844  -6.8068  -5.6620  -1.5882  -1.4262
    -1.2816  -0.7396  -0.3395   0.3707   0.7908   0.8824   2.2028   6.8668
     7.7915   9.1542   9.2263   9.7704

          k =-0.4150-0.0179 0.6777 (  2276 PWs)   bands (ev):

   -12.9137 -12.0949 -10.6109  -8.9989  -6.4784  -5.0222  -4.1355  -2.7452
    -2.4090  -1.8554  -1.0421  -0.2782  -0.0097   1.3738   2.9753   4.5438
     5.8879   7.2577   8.5716  11.0552

          k =-0.5842-0.0006-1.4658 (  2270 PWs)   bands (ev):

   -10.0164  -9.7515  -9.4685  -8.6923  -7.8789  -7.0427  -5.4692  -4.8708
    -3.4373  -3.2156  -2.4060   1.8548   2.2193   2.4170   3.2768   3.4103
     4.6831   4.9187   6.9834   9.1321

          k =-0.5047-0.7715-0.0261 (  2294 PWs)   bands (ev):

   -13.8948 -12.8326 -12.3606  -8.8521  -8.4715  -3.8753  -2.9543  -2.7291
    -0.6815  -0.6009   0.0887   0.4500   0.4958   1.1533   4.0271   5.5868
     7.4143   9.3954   9.7276  11.4750

          k =-0.4483-0.7773 0.6884 (  2276 PWs)   bands (ev):

   -12.7985 -11.8651 -11.1858  -8.4143  -7.3197  -4.2178  -4.0138  -2.9143
    -2.8085  -1.9523  -1.4479  -0.7126   0.4141   1.5119   3.9961   4.7618
     5.8477   6.2352   9.2001  10.7075

          k =-0.6175-0.7600-1.4550 (  2258 PWs)   bands (ev):

    -9.8286  -9.6650  -9.5855  -8.6143  -8.0183  -7.1581  -5.6952  -4.6865
    -3.4737  -3.2650  -2.2766   1.4713   1.9906   2.4005   2.9405   3.4405
     4.5615   5.3989   7.7479   9.5597

     the Fermi energy is     4.8162 ev

!    total energy              =     -90.74337440 Ry
     Harris-Foulkes estimate   =     -90.74337448 Ry
     estimated scf accuracy    <       0.00000009 Ry

     The total energy is the sum of the following terms:

     one-electron contribution =     -43.53804210 Ry
     hartree contribution      =      35.44573808 Ry
     xc contribution           =     -27.63113093 Ry
     ewald contribution        =     -55.02003080 Ry
     smearing contrib. (-TS)   =       0.00009135 Ry

     convergence has been achieved in   9 iterations

     Forces acting on atoms (cartesian axes, Ry/au):

     atom    1 type  1   force =    -0.00093197   -0.01195507    0.01624265
     atom    2 type  1   force =    -0.01885983   -0.00085111    0.00597699
     atom    3 type  1   force =    -0.00551034    0.00509154    0.00957714
     atom    4 type  1   force =     0.00056007    0.01211196   -0.01589193
     atom    5 type  1   force =     0.00284500    0.01215779   -0.00136980
     atom    6 type  1   force =    -0.00949469   -0.00889901    0.00099209
     atom    7 type  1   force =     0.00993262   -0.00670775   -0.00933207
     atom    8 type  1   force =     0.02145915   -0.00094836   -0.00619507

     Total force =     0.049051     Total SCF correction =     0.000705


     Computing stress (Cartesian axis) and pressure

          total   stress  (Ry/bohr**3)                   (kbar)     P=       -2.72
  -0.00002737   0.00003185   0.00001923           -4.03        4.69        2.83
   0.00003185  -0.00007427   0.00000421            4.69      -10.93        0.62
   0.00001923   0.00000421   0.00004622            2.83        0.62        6.80


     number of scf cycles    =   7
     number of bfgs steps    =   6

     enthalpy old            =     -90.7388592449 Ry
     enthalpy new            =     -90.7433362035 Ry

     CASE: enthalpy_new < enthalpy_old

     new trust radius        =       0.1058980459 bohr
     new conv_thr            =       0.0000002146 Ry

     new unit-cell volume =    564.24865 a.u.^3 (    83.61302 Ang^3 )
     density =      1.90654 g/cm^3

CELL_PARAMETERS (bohr)
  14.194020296  -0.624176196  -1.153225570
  -0.222679000   8.624149638   0.046760499
  -0.377441817   0.059870580   4.645496845

ATOMIC_POSITIONS (crystal)
C             0.4513520347        0.3306733435        0.3806975786
C             0.3819388874        0.4373731050        0.8402566243
C             0.9627508754        0.7470929347        0.1547186887
C             0.5744972273        0.1090488340        0.4756072266
C             0.7962523815        0.8401487177        1.0838666398
C             0.2292123882        0.5995860645        0.7723875877
C             0.0632255592        0.6922657854        0.7014571769
C             0.6439946464        0.0021382150        1.0159304775



     Writing output data file ./pp.save/
     NEW-OLD atomic charge density approx. for the potential
     extrapolated charge   32.13129, renormalised to   32.00000

     total cpu time spent up to now is       72.3 secs

     Self-consistent Calculation

     iteration #  1     ecut=    40.00 Ry     beta= 0.50
     Davidson diagonalization with overlap
     ethr =  1.00E-06,  avg # of iterations =  7.9

     total cpu time spent up to now is       77.1 secs

     total energy              =     -90.74432055 Ry
     Harris-Foulkes estimate   =     -90.60599094 Ry
     estimated scf accuracy    <       0.00432589 Ry

     iteration #  2     ecut=    40.00 Ry     beta= 0.50
     Davidson diagonalization with overlap
     ethr =  1.35E-05,  avg # of iterations =  4.0

     total cpu time spent up to now is       79.6 secs

     total energy              =     -90.74501680 Ry
     Harris-Foulkes estimate   =     -90.74702099 Ry
     estimated scf accuracy    <       0.00543854 Ry

     iteration #  3     ecut=    40.00 Ry     beta= 0.50
     Davidson diagonalization with overlap
     ethr =  1.35E-05,  avg # of iterations =  3.4

     total cpu time spent up to now is       81.7 secs

     total energy              =     -90.74593854 Ry
     Harris-Foulkes estimate   =     -90.74608651 Ry
     estimated scf accuracy    <       0.00045569 Ry

     iteration #  4     ecut=    40.00 Ry     beta= 0.50
     Davidson diagonalization with overlap
     ethr =  1.42E-06,  avg # of iterations =  2.9

     total cpu time spent up to now is       83.6 secs

     total energy              =     -90.74594197 Ry
     Harris-Foulkes estimate   =     -90.74603893 Ry
     estimated scf accuracy    <       0.00026987 Ry

     iteration #  5     ecut=    40.00 Ry     beta= 0.50
     Davidson diagonalization with overlap
     ethr =  8.43E-07,  avg # of iterations =  3.3

     total cpu time spent up to now is       85.7 secs

     total energy              =     -90.74593148 Ry
     Harris-Foulkes estimate   =     -90.74609312 Ry
     estimated scf accuracy    <       0.00104139 Ry

     iteration #  6     ecut=    40.00 Ry     beta= 0.50
     Davidson diagonalization with overlap
     ethr =  8.43E-07,  avg # of iterations =  2.2

     total cpu time spent up to now is       87.4 secs

     total energy              =     -90.74601629 Ry
     Harris-Foulkes estimate   =     -90.74602192 Ry
     estimated scf accuracy    <       0.00002712 Ry

     iteration #  7     ecut=    40.00 Ry     beta= 0.50
     Davidson diagonalization with overlap
     ethr =  8.47E-08,  avg # of iterations =  1.8

     total cpu time spent up to now is       89.0 secs

     total energy              =     -90.74602005 Ry
     Harris-Foulkes estimate   =     -90.74601989 Ry
     estimated scf accuracy    <       0.00000070 Ry

     iteration #  8     ecut=    40.00 Ry     beta= 0.50
     Davidson diagonalization with overlap
     ethr =  2.20E-09,  avg # of iterations =  3.1

     total cpu time spent up to now is       91.2 secs

     End of self-consistent calculation

          k = 0.0000 0.0000 0.0000 (  2279 PWs)   bands (ev):

   -14.0856 -12.8292 -12.1953  -8.8827  -8.4534  -4.0758  -3.0906  -1.4145
    -0.8067  -0.7462  -0.6904   0.2587   0.5100   1.2079   3.8835   4.6669
     7.3223   9.0449   9.6787  10.5752

          k = 0.0578-0.0024 0.7133 (  2275 PWs)   bands (ev):

   -12.9806 -11.8581 -11.0507  -8.4272  -7.3702  -4.2871  -4.0940  -2.9352
    -2.8783  -1.9182  -0.8266  -0.2569   0.1543   0.7462   3.8447   4.4540
     5.5514   6.2397   9.6501  10.5419

          k =-0.1157 0.0047-1.4265 (  2286 PWs)   bands (ev):

    -9.9966  -9.8133  -9.6106  -8.5969  -7.9798  -7.0030  -5.6335  -4.6909
    -3.5578  -3.3813  -2.3562   1.7671   2.2062   2.3538   3.1934   3.4559
     4.5738   4.8779   6.9877   9.2142

          k =-0.0330-0.7642 0.0072 (  2294 PWs)   bands (ev):

   -13.8307 -13.2306 -11.7173 -10.1436  -6.8554  -5.5860  -2.4877  -1.6295
    -1.5492  -0.6861  -0.4186   0.7885   0.8844   1.4246   3.0542   6.5577
     7.7003   8.4289   9.0840  11.9654

          k = 0.0248-0.7666 0.7204 (  2273 PWs)   bands (ev):

   -12.7650 -12.1191 -10.7804  -9.1506  -6.5322  -5.0238  -4.0627  -2.7481
    -2.4793  -1.8501  -1.2674  -1.1220  -0.2806   2.3385   3.6235   4.4522
     5.8172   6.9396   8.2069  11.5116

          k =-0.1487-0.7595-1.4193 (  2276 PWs)   bands (ev):

    -9.9172  -9.7105  -9.5313  -8.7547  -7.9641  -7.1470  -5.5910  -4.9257
    -3.5014  -3.2130  -2.4047   1.3990   1.9805   2.2822   2.9942   3.3680
     4.4295   5.3612   7.7553   9.6648

          k =-0.4674-0.0119-0.0378 (  2282 PWs)   bands (ev):

   -13.9959 -13.2328 -11.5440 -10.0460  -6.8853  -5.6757  -1.6833  -1.4224
    -1.3031  -0.7189  -0.4744   0.4051   0.7889   0.9210   2.1610   6.9231
     7.6921   8.9659   9.1163   9.7384

          k =-0.4095-0.0142 0.6754 (  2276 PWs)   bands (ev):

   -12.9201 -12.1182 -10.6252  -9.0702  -6.5567  -5.0691  -4.1158  -2.7269
    -2.4450  -1.8823  -1.1496  -0.2797  -0.0503   1.3677   2.9460   4.4732
     5.8937   7.1717   8.5108  11.0195

          k =-0.5831-0.0071-1.4643 (  2270 PWs)   bands (ev):

   -10.0518  -9.7903  -9.5008  -8.7705  -7.8678  -7.0239  -5.5079  -4.9113
    -3.4996  -3.2409  -2.4641   1.8454   2.1041   2.3727   3.2260   3.4095
     4.6709   4.8233   6.9854   9.2619

          k =-0.5004-0.7761-0.0307 (  2294 PWs)   bands (ev):

   -13.9070 -12.8476 -12.3519  -8.9136  -8.5296  -3.9615  -3.0198  -2.7203
    -0.6613  -0.6506  -0.0247   0.3815   0.5050   1.1860   4.0795   5.5593
     7.2999   9.5649   9.6880  11.4060

          k =-0.4426-0.7784 0.6826 (  2276 PWs)   bands (ev):

   -12.8150 -11.8809 -11.1882  -8.4803  -7.3976  -4.2388  -4.0553  -2.9378
    -2.8398  -1.9382  -1.4510  -0.8091   0.3388   1.4460   4.0120   4.7048
     5.8377   6.1855   9.2522  10.7143

          k =-0.6161-0.7713-1.4572 (  2258 PWs)   bands (ev):

    -9.8505  -9.7348  -9.6331  -8.5965  -8.0842  -7.1246  -5.7026  -4.6995
    -3.5722  -3.3585  -2.2968   1.4549   1.8615   2.3207   2.9395   3.4100
     4.5436   5.2868   7.7447   9.7336

     the Fermi energy is     4.7580 ev

!    total energy              =     -90.74602017 Ry
     Harris-Foulkes estimate   =     -90.74602027 Ry
     estimated scf accuracy    <       0.00000017 Ry

     The total energy is the sum of the following terms:

     one-electron contribution =     -43.10182150 Ry
     hartree contribution      =      35.17955851 Ry
     xc contribution           =     -27.62154944 Ry
     ewald contribution        =     -55.20265099 Ry
     smearing contrib. (-TS)   =       0.00044324 Ry

     convergence has been achieved in   8 iterations

     Forces acting on atoms (cartesian axes, Ry/au):

     atom    1 type  1   force =    -0.01449867   -0.00036946    0.01335475
     atom    2 type  1   force =    -0.01397248   -0.00912434    0.01555889
     atom    3 type  1   force =    -0.00111699    0.00133690    0.00221966
     atom    4 type  1   force =     0.01483595   -0.00010988   -0.01399094
     atom    5 type  1   force =     0.00379573    0.00480527   -0.00228423
     atom    6 type  1   force =     0.00802394   -0.01061679    0.00279413
     atom    7 type  1   force =    -0.00671847    0.00172231   -0.00259155
     atom    8 type  1   force =     0.00965100    0.01235599   -0.01506071

     Total force =     0.045696     Total SCF correction =     0.000668


     Computing stress (Cartesian axis) and pressure

          total   stress  (Ry/bohr**3)                   (kbar)     P=       -6.08
   0.00001884  -0.00000045   0.00001344            2.77       -0.07        1.98
  -0.00000045  -0.00006319   0.00003989           -0.07       -9.30        5.87
   0.00001344   0.00003989  -0.00007963            1.98        5.87      -11.71


     number of scf cycles    =   8
     number of bfgs steps    =   7

     enthalpy old            =     -90.7433362035 Ry
     enthalpy new            =     -90.7459818149 Ry

     CASE: enthalpy_new < enthalpy_old

     new trust radius        =       0.1174664997 bohr
     new conv_thr            =       0.0000001556 Ry

     new unit-cell volume =    564.48285 a.u.^3 (    83.64773 Ang^3 )
     density =      1.90575 g/cm^3

CELL_PARAMETERS (bohr)
  14.331674975  -0.614177236  -1.182072809
  -0.215489766   8.546996788   0.011685766
  -0.386757058   0.041493170   4.645161203

ATOMIC_POSITIONS (crystal)
C             0.4493617028        0.3285364583        0.3800701363
C             0.3781207718        0.4328454676        0.8397803291
C             0.9633448124        0.7504442293        0.1576076240
C             0.5764889210        0.1111245236        0.4761192400
C             0.8014153924        0.8513673757        1.0882444177
C             0.2248999843        0.5878394441        0.7680055617
C             0.0620846602        0.6892115708        0.6985363842
C             0.6475077552        0.0069579305        1.0165583070



     Writing output data file ./pp.save/
     NEW-OLD atomic charge density approx. for the potential
     extrapolated charge   32.01328, renormalised to   32.00000

     total cpu time spent up to now is       91.3 secs

     Self-consistent Calculation

     iteration #  1     ecut=    40.00 Ry     beta= 0.50
     Davidson diagonalization with overlap
     ethr =  1.00E-06,  avg # of iterations =  8.4

     total cpu time spent up to now is       97.0 secs

     total energy              =     -90.74856655 Ry
     Harris-Foulkes estimate   =     -90.73684443 Ry
     estimated scf accuracy    <       0.00467156 Ry

     iteration #  2     ecut=    40.00 Ry     beta= 0.50
     Davidson diagonalization with overlap
     ethr =  1.46E-05,  avg # of iterations =  2.7

     total cpu time spent up to now is       99.2 secs

     total energy              =     -90.74885080 Ry
     Harris-Foulkes estimate   =     -90.74966102 Ry
     estimated scf accuracy    <       0.00176668 Ry

     iteration #  3     ecut=    40.00 Ry     beta= 0.50
     Davidson diagonalization with overlap
     ethr =  5.52E-06,  avg # of iterations =  4.6

     total cpu time spent up to now is      102.2 secs

     total energy              =     -90.74868243 Ry
     Harris-Foulkes estimate   =     -90.74992826 Ry
     estimated scf accuracy    <       0.00589478 Ry

[...]
     Harris-Foulkes estimate   =     -90.76690408 Ry
     estimated scf accuracy    <       0.00000425 Ry

     iteration #  5     ecut=    40.00 Ry     beta= 0.50
     Davidson diagonalization with overlap
     ethr =  1.33E-08,  avg # of iterations =  1.0

     total cpu time spent up to now is     2421.6 secs

     total energy              =     -90.76690231 Ry
     Harris-Foulkes estimate   =     -90.76690368 Ry
     estimated scf accuracy    <       0.00000488 Ry

     iteration #  6     ecut=    40.00 Ry     beta= 0.50
     Davidson diagonalization with overlap
     ethr =  1.33E-08,  avg # of iterations =  1.0

     total cpu time spent up to now is     2429.7 secs

     total energy              =     -90.76690266 Ry
     Harris-Foulkes estimate   =     -90.76690278 Ry
     estimated scf accuracy    <       0.00000028 Ry

     iteration #  7     ecut=    40.00 Ry     beta= 0.50
     Davidson diagonalization with overlap
     ethr =  8.90E-10,  avg # of iterations =  3.0

     total cpu time spent up to now is     2443.8 secs

     total energy              =     -90.76690274 Ry
     Harris-Foulkes estimate   =     -90.76690275 Ry
     estimated scf accuracy    <       0.00000003 Ry

     iteration #  8     ecut=    40.00 Ry     beta= 0.50
     Davidson diagonalization with overlap
     ethr =  9.43E-11,  avg # of iterations =  2.0

     total cpu time spent up to now is     2454.9 secs

     End of self-consistent calculation

          k = 0.0000 0.0000 0.0000 (  2279 PWs)   bands (ev):

   -13.0565 -11.8048 -11.1805  -7.7279  -7.4092  -2.9874  -1.9692  -0.2776
     0.3312   0.3751   0.6192   1.2571   1.5039   2.2404   4.3366   5.3515
     8.3960  10.7415  10.7767  12.5073

          k = 0.0895 0.0643 0.7292 (  2275 PWs)   bands (ev):

   -11.9336 -10.8691 -10.0058  -7.2911  -6.3503  -3.2267  -2.9940  -1.9665
    -1.7903  -0.8291   0.2183   0.8589   1.4371   1.7966   4.7096   5.3421
     6.5089   7.1850  10.6331  12.0491

          k =-0.1791-0.1286-1.4583 (  2286 PWs)   bands (ev):

    -8.9255  -8.7305  -8.6075  -7.6429  -6.8965  -5.9652  -4.5408  -3.7235
    -2.5203  -2.2419  -1.3655   2.9836   3.1772   3.7982   4.0896   4.5631
     5.4827   5.6932   8.3049  10.4592

          k =-0.0706-0.8393-0.0627 (  2294 PWs)   bands (ev):

   -12.7654 -12.0804 -10.6970  -9.1385  -5.8856  -4.5911  -1.4476  -1.0136
    -0.5523   0.3486   0.7380   1.7596   1.9794   2.5325   4.3971   8.1352
     8.8043  10.1118  10.1719  13.3897

          k = 0.0190-0.7750 0.6664 (  2273 PWs)   bands (ev):

   -11.6905 -11.0143  -9.7172  -8.1509  -5.5682  -3.9864  -3.0226  -1.7370
    -1.4049  -0.8013  -0.4626  -0.0463   0.6594   3.2197   4.9479   5.4998
     6.9903   8.5747   9.3558  12.8821

          k =-0.2497-0.9679-1.5211 (  2276 PWs)   bands (ev):

    -8.7859  -8.6600  -8.5084  -7.6901  -6.9687  -6.0111  -4.6539  -3.7797
    -2.5280  -2.2909  -1.3494   2.2533   2.7142   3.5017   4.0349   4.5218
     5.8694   6.1451   8.6025  11.0578

          k =-0.4725-0.0404-0.0639 (  2282 PWs)   bands (ev):

   -12.9317 -12.2801 -10.4861  -8.9398  -5.8381  -4.5255  -0.6048  -0.3178
     0.2442   0.3431   0.6955   1.0817   1.7587   1.9813   2.8928   7.6532
     8.8102   9.6782  10.1173  11.8505

          k =-0.3830 0.0239 0.6653 (  2276 PWs)   bands (ev):

   -11.8690 -11.1246  -9.5866  -7.9865  -5.4677  -3.9985  -3.0613  -1.6939
    -1.4131  -0.8311  -0.0518   0.7382   1.3516   2.3933   3.7742   5.5215
     7.0557   7.5867   9.6468  12.4922

          k =-0.6516-0.1690-1.5222 (  2270 PWs)   bands (ev):

    -8.9875  -8.7720  -8.4635  -7.6424  -6.9377  -5.9855  -4.5387  -3.7186
    -2.5013  -2.2230  -1.3841   2.7642   3.4396   3.8236   4.0762   4.5279
     5.3892   5.8084   8.2176  10.5579

          k =-0.5431-0.8797-0.1266 (  2294 PWs)   bands (ev):

   -12.8050 -11.8083 -11.2321  -7.9187  -7.5858  -2.9480  -1.9489  -1.9232
     0.3771   0.4095   0.9384   1.2953   1.5090   2.2350   5.7497   6.8360
     8.3882  10.7404  12.0294  12.7105

          k =-0.4536-0.8154 0.6025 (  2276 PWs)   bands (ev):

   -11.7342 -10.7810 -10.1308  -7.4696  -6.4264  -3.2669  -2.9731  -1.9315
    -1.7432  -0.8643  -0.5472   0.2282   0.9513   2.6423   5.3056   5.9763
     7.0195   7.1769  10.9413  11.9512

          k =-0.7222-1.0083-1.5850 (  2258 PWs)   bands (ev):

    -8.8345  -8.6792  -8.4284  -7.6313  -7.0519  -6.0241  -4.6342  -3.7837
    -2.5216  -2.2593  -1.3733   2.4376   2.6607   3.3325   4.0373   4.4804
     5.5421   6.5175   8.7402  11.0856

     the Fermi energy is     5.8195 ev

!    total energy              =     -90.76690274 Ry
     Harris-Foulkes estimate   =     -90.76690274 Ry
     estimated scf accuracy    <          1.7E-09 Ry

     The total energy is the sum of the following terms:

     one-electron contribution =     -23.31842390 Ry
     hartree contribution      =      26.53273373 Ry
     xc contribution           =     -27.64765810 Ry
     ewald contribution        =     -66.33574396 Ry
     smearing contrib. (-TS)   =       0.00218949 Ry

     convergence has been achieved in   8 iterations

     Forces acting on atoms (cartesian axes, Ry/au):

     atom    1 type  1   force =    -0.00006030   -0.00033886   -0.00050406
     atom    2 type  1   force =    -0.00019270   -0.00028171   -0.00003617
     atom    3 type  1   force =     0.00078566   -0.00001308    0.00031216
     atom    4 type  1   force =    -0.00009345    0.00052931    0.00070195
     atom    5 type  1   force =    -0.00033254    0.00044373   -0.00022263
     atom    6 type  1   force =    -0.00012812    0.00001371   -0.00005968
     atom    7 type  1   force =    -0.00048158   -0.00025589   -0.00005694
     atom    8 type  1   force =     0.00050303   -0.00009720   -0.00013463

     Total force =     0.001716     Total SCF correction =     0.000067


     Computing stress (Cartesian axis) and pressure

          total   stress  (Ry/bohr**3)                   (kbar)     P=        0.18
  -0.00000217  -0.00002014   0.00000730           -0.32       -2.96        1.07
  -0.00002014  -0.00000030   0.00001251           -2.96       -0.04        1.84
   0.00000730   0.00001251   0.00000607            1.07        1.84        0.89


     number of scf cycles    =  47
     number of bfgs steps    =  46

     enthalpy old            =     -90.7668435716 Ry
     enthalpy new            =     -90.7668682234 Ry

     CASE: enthalpy_new < enthalpy_old

     new trust radius        =       0.0108488201 bohr
     new conv_thr            =       0.0000000100 Ry

     new unit-cell volume =    506.75172 a.u.^3 (    75.09286 Ang^3 )
     density =      2.12286 g/cm^3

CELL_PARAMETERS (bohr)
  14.227478271  -1.090142581  -1.650998525
  -0.607155333   7.936389443  -0.623746355
  -0.598389902  -0.293439112   4.613666201

ATOMIC_POSITIONS (crystal)
C             0.4347153702        0.2940114261        0.3884487156
C             0.3533274239        0.3719788033        0.8470662628
C             0.9696551332        0.7642626572        0.1573876490
C             0.5911408021        0.1456658398        0.4678856171
C             0.8240070707        0.9148159456        1.0853814985
C             0.2017650211        0.5246443427        0.7708194811
C             0.0560948938        0.6752034252        0.6986311768
C             0.6725182850        0.0677445600        1.0093015992



     Writing output data file ./pp.save/
     NEW-OLD atomic charge density approx. for the potential
     extrapolated charge   31.93754, renormalised to   32.00000

     total cpu time spent up to now is     2455.5 secs

     Self-consistent Calculation

     iteration #  1     ecut=    40.00 Ry     beta= 0.50
     Davidson diagonalization with overlap
     ethr =  1.00E-06,  avg # of iterations =  3.0

     total cpu time spent up to now is     2469.6 secs

     total energy              =     -90.76684700 Ry
     Harris-Foulkes estimate   =     -90.79973045 Ry
     estimated scf accuracy    <       0.00004373 Ry

     iteration #  2     ecut=    40.00 Ry     beta= 0.50
     Davidson diagonalization with overlap
     ethr =  1.37E-07,  avg # of iterations =  3.4

     total cpu time spent up to now is     2485.5 secs

     total energy              =     -90.76693424 Ry
     Harris-Foulkes estimate   =     -90.76695444 Ry
     estimated scf accuracy    <       0.00006239 Ry

     iteration #  3     ecut=    40.00 Ry     beta= 0.50
     Davidson diagonalization with overlap
     ethr =  1.37E-07,  avg # of iterations =  2.1

     total cpu time spent up to now is     2496.4 secs

     total energy              =     -90.76693708 Ry
     Harris-Foulkes estimate   =     -90.76693959 Ry
     estimated scf accuracy    <       0.00001450 Ry

     iteration #  4     ecut=    40.00 Ry     beta= 0.50
     Davidson diagonalization with overlap
     ethr =  4.53E-08,  avg # of iterations =  1.0

     total cpu time spent up to now is     2504.7 secs

     total energy              =     -90.76693445 Ry
     Harris-Foulkes estimate   =     -90.76693753 Ry
     estimated scf accuracy    <       0.00000980 Ry

     iteration #  5     ecut=    40.00 Ry     beta= 0.50
     Davidson diagonalization with overlap
     ethr =  3.06E-08,  avg # of iterations =  1.0

     total cpu time spent up to now is     2513.0 secs

     total energy              =     -90.76693326 Ry
     Harris-Foulkes estimate   =     -90.76693486 Ry
     estimated scf accuracy    <       0.00000354 Ry

     iteration #  6     ecut=    40.00 Ry     beta= 0.50
     Davidson diagonalization with overlap
     ethr =  1.11E-08,  avg # of iterations =  2.0

     total cpu time spent up to now is     2524.0 secs

     total energy              =     -90.76693332 Ry
     Harris-Foulkes estimate   =     -90.76693411 Ry
     estimated scf accuracy    <       0.00000454 Ry

     iteration #  7     ecut=    40.00 Ry     beta= 0.50
     Davidson diagonalization with overlap
     ethr =  1.11E-08,  avg # of iterations =  1.0

     total cpu time spent up to now is     2532.5 secs

     total energy              =     -90.76693369 Ry
     Harris-Foulkes estimate   =     -90.76693372 Ry
     estimated scf accuracy    <       0.00000006 Ry

     iteration #  8     ecut=    40.00 Ry     beta= 0.50
     Davidson diagonalization with overlap
     ethr =  1.84E-10,  avg # of iterations =  3.2

     total cpu time spent up to now is     2547.8 secs

     total energy              =     -90.76693370 Ry
     Harris-Foulkes estimate   =     -90.76693371 Ry
     estimated scf accuracy    <       0.00000002 Ry

     iteration #  9     ecut=    40.00 Ry     beta= 0.50
     Davidson diagonalization with overlap
     ethr =  5.41E-11,  avg # of iterations =  2.1

     total cpu time spent up to now is     2560.0 secs

     End of self-consistent calculation

          k = 0.0000 0.0000 0.0000 (  2279 PWs)   bands (ev):

   -13.0372 -11.7828 -11.1564  -7.7051  -7.3861  -2.9658  -1.9497  -0.2534
     0.3558   0.3957   0.6340   1.2786   1.5253   2.2620   4.3521   5.3674
     8.4174  10.7611  10.8149  12.5349

          k = 0.0895 0.0642 0.7291 (  2275 PWs)   bands (ev):

   -11.9141 -10.8475  -9.9818  -7.2675  -6.3285  -3.2059  -2.9725  -1.9456
    -1.7689  -0.8069   0.2396   0.8868   1.4556   1.8145   4.7227   5.3629
     6.5299   7.2054  10.6552  12.0715

          k =-0.1790-0.1283-1.4582 (  2286 PWs)   bands (ev):

    -8.9047  -8.7114  -8.5856  -7.6219  -6.8721  -5.9426  -4.5170  -3.7023
    -2.4978  -2.2206  -1.3436   3.0074   3.1999   3.8169   4.1137   4.5834
     5.4976   5.7132   8.3236  10.4736

          k =-0.0716-0.8399-0.0627 (  2294 PWs)   bands (ev):

   -12.7432 -12.0570 -10.6768  -9.1189  -5.8634  -4.5688  -1.4309  -0.9954
    -0.5294   0.3695   0.7595   1.7807   2.0011   2.5662   4.4308   8.1494
     8.8246  10.1318  10.1855  13.4093

          k = 0.0179-0.7757 0.6664 (  2273 PWs)   bands (ev):

   -11.6683 -10.9913  -9.6966  -8.1308  -5.5468  -3.9638  -3.0013  -1.7156
    -1.3833  -0.7790  -0.4480  -0.0248   0.6805   3.2520   4.9754   5.5201
     7.0095   8.5956   9.3715  12.8981

          k =-0.2507-0.9682-1.5209 (  2276 PWs)   bands (ev):

    -8.7616  -8.6398  -8.4863  -7.6688  -6.9475  -5.9899  -4.6336  -3.7577
    -2.5061  -2.2710  -1.3259   2.2690   2.7318   3.5241   4.0551   4.5421
     5.8941   6.1712   8.6281  11.0781

          k =-0.4733-0.0412-0.0640 (  2282 PWs)   bands (ev):

   -12.9119 -12.2591 -10.4613  -8.9160  -5.8166  -4.5045  -0.5829  -0.2922
     0.2704   0.3635   0.7157   1.0932   1.7798   2.0032   2.9039   7.6771
     8.8312   9.7045  10.1377  11.8981

          k =-0.3838 0.0229 0.6651 (  2276 PWs)   bands (ev):

   -11.8494 -11.1032  -9.5622  -7.9634  -5.4455  -3.9771  -3.0411  -1.6721
    -1.3915  -0.8095  -0.0303   0.7607   1.3806   2.4053   3.7887   5.5421
     7.0759   7.6059   9.6721  12.5327

          k =-0.6523-0.1695-1.5222 (  2270 PWs)   bands (ev):

    -8.9669  -8.7533  -8.4410  -7.6200  -6.9148  -5.9627  -4.5167  -3.6954
    -2.4790  -2.2021  -1.3617   2.7822   3.4685   3.8453   4.0986   4.5474
     5.4077   5.8249   8.2343  10.5758

          k =-0.5449-0.8811-0.1267 (  2294 PWs)   bands (ev):

   -12.7819 -11.7870 -11.2106  -7.8985  -7.5650  -2.9242  -1.9359  -1.9012
     0.3979   0.4352   0.9680   1.3168   1.5309   2.2561   5.7753   6.8617
     8.4087  10.7600  12.0407  12.7197

          k =-0.4554-0.8170 0.6024 (  2276 PWs)   bands (ev):

   -11.7114 -10.7591 -10.1097  -7.4494  -6.4050  -3.2456  -2.9508  -1.9097
    -1.7210  -0.8428  -0.5333   0.2497   0.9741   2.6726   5.3253   6.0055
     7.0388   7.1973  10.9572  11.9702

          k =-0.7240-1.0094-1.5849 (  2258 PWs)   bands (ev):

    -8.8115  -8.6586  -8.4050  -7.6106  -7.0307  -6.0030  -4.6133  -3.7635
    -2.4989  -2.2379  -1.3509   2.4566   2.6790   3.3505   4.0582   4.4993
     5.5621   6.5485   8.7677  11.1105

     the Fermi energy is     5.8421 ev

!    total energy              =     -90.76693370 Ry
     Harris-Foulkes estimate   =     -90.76693371 Ry
     estimated scf accuracy    <          9.8E-10 Ry

     The total energy is the sum of the following terms:

     one-electron contribution =     -23.02171049 Ry
     hartree contribution      =      26.40910736 Ry
     xc contribution           =     -27.64722694 Ry
     ewald contribution        =     -66.50932751 Ry
     smearing contrib. (-TS)   =       0.00222387 Ry

     convergence has been achieved in   9 iterations

     Forces acting on atoms (cartesian axes, Ry/au):

     atom    1 type  1   force =    -0.00035056   -0.00017826   -0.00059788
     atom    2 type  1   force =    -0.00080862   -0.00024380   -0.00031765
     atom    3 type  1   force =     0.00025531   -0.00068586   -0.00028690
     atom    4 type  1   force =     0.00023676    0.00037961    0.00071268
     atom    5 type  1   force =    -0.00057569    0.00062245   -0.00013654
     atom    6 type  1   force =     0.00022009   -0.00024805    0.00007502
     atom    7 type  1   force =    -0.00004480    0.00049313    0.00039961
     atom    8 type  1   force =     0.00106751   -0.00013923    0.00015166

     Total force =     0.002257     Total SCF correction =     0.000047


     Computing stress (Cartesian axis) and pressure

          total   stress  (Ry/bohr**3)                   (kbar)     P=       -0.19
  -0.00000729  -0.00001456   0.00000836           -1.07       -2.14        1.23
  -0.00001456  -0.00000326   0.00001250           -2.14       -0.48        1.84
   0.00000836   0.00001250   0.00000661            1.23        1.84        0.97


     number of scf cycles    =  48
     number of bfgs steps    =  47

     enthalpy old            =     -90.7668682234 Ry
     enthalpy new            =     -90.7668992562 Ry

     CASE: enthalpy_new < enthalpy_old

     new trust radius        =       0.0162953718 bohr
     new conv_thr            =       0.0000000100 Ry

     new unit-cell volume =    504.61866 a.u.^3 (    74.77677 Ang^3 )
     density =      2.13184 g/cm^3

CELL_PARAMETERS (bohr)
  14.201857282  -1.115618985  -1.639734767
  -0.629773284   7.916254703  -0.613580241
  -0.596026706  -0.289929253   4.614891812

ATOMIC_POSITIONS (crystal)
C             0.4347686971        0.2940750701        0.3887079370
C             0.3534238478        0.3721101486        0.8474655138
C             0.9698035568        0.7645620131        0.1575135519
C             0.5910923647        0.1456200129        0.4676631534
C             0.8240160669        0.9148466911        1.0849051454
C             0.2017541960        0.5246152555        0.7710334896
C             0.0559471305        0.6748775052        0.6987343342
C             0.6724181402        0.0676203037        1.0088988748



     Writing output data file ./pp.save/
     NEW-OLD atomic charge density approx. for the potential
     extrapolated charge   31.86474, renormalised to   32.00000

     total cpu time spent up to now is     2560.5 secs

     Self-consistent Calculation

     iteration #  1     ecut=    40.00 Ry     beta= 0.50
     Davidson diagonalization with overlap
     ethr =  1.00E-06,  avg # of iterations =  3.8

     total cpu time spent up to now is     2578.2 secs

     total energy              =     -90.76658435 Ry
     Harris-Foulkes estimate   =     -90.83576679 Ry
     estimated scf accuracy    <       0.00020696 Ry

     iteration #  2     ecut=    40.00 Ry     beta= 0.50
     Davidson diagonalization with overlap
     ethr =  6.47E-07,  avg # of iterations =  4.0

     total cpu time spent up to now is     2596.8 secs

     total energy              =     -90.76698536 Ry
     Harris-Foulkes estimate   =     -90.76708243 Ry
     estimated scf accuracy    <       0.00029750 Ry

     iteration #  3     ecut=    40.00 Ry     beta= 0.50
     Davidson diagonalization with overlap
     ethr =  6.47E-07,  avg # of iterations =  2.1

     total cpu time spent up to now is     2608.0 secs

     total energy              =     -90.76699911 Ry
     Harris-Foulkes estimate   =     -90.76701074 Ry
     estimated scf accuracy    <       0.00006796 Ry

     iteration #  4     ecut=    40.00 Ry     beta= 0.50
     Davidson diagonalization with overlap
     ethr =  2.12E-07,  avg # of iterations =  1.0

     total cpu time spent up to now is     2616.4 secs

     total energy              =     -90.76699226 Ry
     Harris-Foulkes estimate   =     -90.76700124 Ry
     estimated scf accuracy    <       0.00004611 Ry

     iteration #  5     ecut=    40.00 Ry     beta= 0.50
     Davidson diagonalization with overlap
     ethr =  1.44E-07,  avg # of iterations =  1.0

     total cpu time spent up to now is     2624.8 secs

     total energy              =     -90.76698534 Ry
     Harris-Foulkes estimate   =     -90.76699377 Ry
     estimated scf accuracy    <       0.00003248 Ry

     iteration #  6     ecut=    40.00 Ry     beta= 0.50
     Davidson diagonalization with overlap
     ethr =  1.02E-07,  avg # of iterations =  1.0

     total cpu time spent up to now is     2633.3 secs

     total energy              =     -90.76698079 Ry
     Harris-Foulkes estimate   =     -90.76698736 Ry
     estimated scf accuracy    <       0.00001305 Ry

     iteration #  7     ecut=    40.00 Ry     beta= 0.50
     Davidson diagonalization with overlap
     ethr =  4.08E-08,  avg # of iterations =  2.1

     total cpu time spent up to now is     2645.5 secs

     total energy              =     -90.76698324 Ry
     Harris-Foulkes estimate   =     -90.76698329 Ry
     estimated scf accuracy    <       0.00000017 Ry

     iteration #  8     ecut=    40.00 Ry     beta= 0.50
     Davidson diagonalization with overlap
     ethr =  5.42E-10,  avg # of iterations =  3.6

     total cpu time spent up to now is     2661.8 secs

     total energy              =     -90.76698324 Ry
     Harris-Foulkes estimate   =     -90.76698329 Ry
     estimated scf accuracy    <       0.00000009 Ry

     iteration #  9     ecut=    40.00 Ry     beta= 0.50
     Davidson diagonalization with overlap
