
     Program PWSCF v.6.5 starts on  9Jul2022 at 19:34:18 

     This program is part of the open-source Quantum ESPRESSO suite
     for quantum simulation of materials; please cite
         "P. Giannozzi et al., J. Phys.:Condens. Matter 21 395502 (2009);
         "P. Giannozzi et al., J. Phys.:Condens. Matter 29 465901 (2017);
          URL http://www.quantum-espresso.org", 
     in publications or presentations arising from this work. More details at
     http://www.quantum-espresso.org/quote

     Parallel version (MPI), running on    96 processors

     MPI processes distributed on     2 nodes
     R & G space division:  proc/nbgrp/npool/nimage =      96
     Waiting for input...
     Reading input from standard input
     Message from routine read_cards :
     DEPRECATED: no units specified in CELL_PARAMETERS card

     Current dimensions of program PWSCF are:
     Max number of different atomic species (ntypx) = 10
     Max number of k-points (npk) =  40000
     Max angular momentum in pseudopotentials (lmaxx) =  3

     Subspace diagonalization in iterative solution of the eigenvalue problem:
     one sub-group per band group will be used
     scalapack distributed-memory algorithm (size of sub-group:  9*  9 procs)

 
     Parallelization info
     --------------------
     sticks:   dense  smooth     PW     G-vecs:    dense   smooth      PW
     Min          13      13      4                  170      170      28
     Max          14      14      5                  174      174      31
     Sum        1341    1341    411                16537    16537    2785
 


     bravais-lattice index     =            0
     lattice parameter (alat)  =      14.1178  a.u.
     unit-cell volume          =     483.2085 (a.u.)^3
     number of atoms/cell      =            8
     number of atomic types    =            1
     number of electrons       =        32.00
     number of Kohn-Sham states=           20
     kinetic-energy cutoff     =      40.0000  Ry
     charge density cutoff     =     160.0000  Ry
     convergence threshold     =      1.0E-08
     mixing beta               =       0.5000
     number of iterations used =            8  plain     mixing
     Exchange-correlation=  SLA  PW   PBE  PBE
                           (   1   4   3   4   0   0   0)
     nstep                     =          250


     celldm(1)=  14.117755  celldm(2)=   0.000000  celldm(3)=   0.000000
     celldm(4)=   0.000000  celldm(5)=   0.000000  celldm(6)=   0.000000

     crystal axes: (cart. coord. in units of alat)
               a(1) = (   0.989562  -0.111547  -0.091233 )  
               a(2) = (  -0.052608   0.536962  -0.005794 )  
               a(3) = (  -0.027462  -0.002777   0.329443 )  

     reciprocal axes: (cart. coord. in units 2 pi/alat)
               b(1) = (  1.030024  0.101850  0.086720 )  
               b(2) = (  0.215470  1.883804  0.033838 )  
               b(3) = (  0.289034  0.061337  3.060034 )  


     PseudoPot. # 1 for C  read from file:
     ./C.pbe-van_bm.upf
     MD5 check sum: 1a69bf6b8db32088f5b2163dbdb77a27
     Pseudo is Ultrasoft, Zval =  4.0
     Generated by new atomic code, or converted to UPF format
     Using radial grid of  721 points,  4 beta functions with: 
                l(1) =   0
                l(2) =   0
                l(3) =   1
                l(4) =   1
     Q(r) pseudized with  8 coefficients,  rinner =    0.800   0.800   0.800


     atomic species   valence    mass     pseudopotential
        C              4.00    12.00000     C ( 1.00)

     No symmetry found



   Cartesian axes

     site n.     atom                  positions (alat units)
         1           C   tau(   1) = (   0.2034432   0.1231394   0.0182541  )
         2           C   tau(   2) = (   0.3516684   0.0219783   0.0292640  )
         3           C   tau(   3) = (   0.0202830   0.2196129   0.3359163  )
         4           C   tau(   4) = (   0.4260043  -0.0373517   0.2013476  )
         5           C   tau(   5) = (   0.6767426   0.2983102   0.2182587  )
         6           C   tau(   6) = (   0.5215376   0.3982280   0.2065104  )
         7           C   tau(   7) = (   0.7752098   0.2503632   0.0603907  )
         8           C   tau(   8) = (  -0.0507623   0.2702176   0.1643314  )

     number of k points=    16  Marzari-Vanderbilt smearing, width (Ry)=  0.0200
                       cart. coord. in units 2pi/alat
        k(    1) = (   0.0000000   0.0000000   0.0000000), wk =   0.0666667
        k(    2) = (   0.0578067   0.0122674   0.6120068), wk =   0.1333333
        k(    3) = (   0.1156135   0.0245347   1.2240136), wk =   0.1333333
        k(    4) = (   0.0718232   0.6279347   0.0112795), wk =   0.1333333
        k(    5) = (   0.1296300   0.6402020   0.6232863), wk =   0.1333333
        k(    6) = (   0.1874367   0.6524694   1.2352931), wk =   0.1333333
        k(    7) = (  -0.0437903   0.6033999  -1.2127341), wk =   0.1333333
        k(    8) = (   0.0140165   0.6156673  -0.6007273), wk =   0.1333333
        k(    9) = (  -0.5150118  -0.0509249  -0.0433598), wk =   0.0666667
        k(   10) = (  -0.4572051  -0.0386575   0.5686470), wk =   0.1333333
        k(   11) = (  -0.3993984  -0.0263901   1.1806538), wk =   0.1333333
        k(   12) = (  -0.4431886   0.5770098  -0.0320803), wk =   0.1333333
        k(   13) = (  -0.3853819   0.5892772   0.5799265), wk =   0.1333333
        k(   14) = (  -0.3275751   0.6015445   1.1919333), wk =   0.1333333
        k(   15) = (  -0.5588021   0.5524751  -1.2560939), wk =   0.1333333
        k(   16) = (  -0.5009954   0.5647424  -0.6440871), wk =   0.1333333

     Dense  grid:    16537 G-vectors     FFT dimensions: (  60,  32,  20)

     Estimated max dynamical RAM per process >       1.49 MB

     Estimated total dynamical RAM >     142.89 MB

     Initial potential from superposition of free atoms

     starting charge   31.99968, renormalised to   32.00000
     Starting wfcs are   32 randomized atomic wfcs

     total cpu time spent up to now is        0.6 secs

     Self-consistent Calculation

     iteration #  1     ecut=    40.00 Ry     beta= 0.50
     Davidson diagonalization with overlap
     ethr =  1.00E-02,  avg # of iterations =  2.0

     total cpu time spent up to now is        1.4 secs

     total energy              =     -90.72130950 Ry
     Harris-Foulkes estimate   =     -91.05085463 Ry
     estimated scf accuracy    <       0.67975749 Ry

     iteration #  2     ecut=    40.00 Ry     beta= 0.50
     Davidson diagonalization with overlap
     ethr =  2.12E-03,  avg # of iterations =  2.0

     total cpu time spent up to now is        2.1 secs

     total energy              =     -90.75100186 Ry
     Harris-Foulkes estimate   =     -90.77906628 Ry
     estimated scf accuracy    <       0.06129357 Ry

     iteration #  3     ecut=    40.00 Ry     beta= 0.50
     Davidson diagonalization with overlap
     ethr =  1.92E-04,  avg # of iterations =  3.7

     total cpu time spent up to now is        3.2 secs

     total energy              =     -90.76037140 Ry
     Harris-Foulkes estimate   =     -90.76210705 Ry
     estimated scf accuracy    <       0.00534869 Ry

     iteration #  4     ecut=    40.00 Ry     beta= 0.50
     Davidson diagonalization with overlap
     ethr =  1.67E-05,  avg # of iterations =  4.6

     total cpu time spent up to now is        4.4 secs

     total energy              =     -90.76094018 Ry
     Harris-Foulkes estimate   =     -90.76183670 Ry
     estimated scf accuracy    <       0.00259691 Ry

     iteration #  5     ecut=    40.00 Ry     beta= 0.50
     Davidson diagonalization with overlap
     ethr =  8.12E-06,  avg # of iterations =  3.6

     total cpu time spent up to now is        5.3 secs

     total energy              =     -90.76133781 Ry
     Harris-Foulkes estimate   =     -90.76181107 Ry
     estimated scf accuracy    <       0.00176630 Ry

     iteration #  6     ecut=    40.00 Ry     beta= 0.50
     Davidson diagonalization with overlap
     ethr =  5.52E-06,  avg # of iterations =  2.4

     total cpu time spent up to now is        6.1 secs

     total energy              =     -90.76155394 Ry
     Harris-Foulkes estimate   =     -90.76156738 Ry
     estimated scf accuracy    <       0.00004171 Ry

     iteration #  7     ecut=    40.00 Ry     beta= 0.50
     Davidson diagonalization with overlap
     ethr =  1.30E-07,  avg # of iterations =  3.3

     total cpu time spent up to now is        7.1 secs

     total energy              =     -90.76156490 Ry
     Harris-Foulkes estimate   =     -90.76156654 Ry
     estimated scf accuracy    <       0.00000538 Ry

     iteration #  8     ecut=    40.00 Ry     beta= 0.50
     Davidson diagonalization with overlap
     ethr =  1.68E-08,  avg # of iterations =  2.1

     total cpu time spent up to now is        7.8 secs

     total energy              =     -90.76156583 Ry
     Harris-Foulkes estimate   =     -90.76156695 Ry
     estimated scf accuracy    <       0.00000497 Ry

     iteration #  9     ecut=    40.00 Ry     beta= 0.50
     Davidson diagonalization with overlap
     ethr =  1.55E-08,  avg # of iterations =  1.1

     total cpu time spent up to now is        8.4 secs

     total energy              =     -90.76156646 Ry
     Harris-Foulkes estimate   =     -90.76156648 Ry
     estimated scf accuracy    <       0.00000015 Ry

     iteration # 10     ecut=    40.00 Ry     beta= 0.50
     Davidson diagonalization with overlap
     ethr =  4.59E-10,  avg # of iterations =  3.0

     total cpu time spent up to now is        9.3 secs

     total energy              =     -90.76156650 Ry
     Harris-Foulkes estimate   =     -90.76156650 Ry
     estimated scf accuracy    <       0.00000001 Ry

     iteration # 11     ecut=    40.00 Ry     beta= 0.50
     Davidson diagonalization with overlap
     ethr =  3.66E-11,  avg # of iterations =  2.1

     total cpu time spent up to now is       10.1 secs

     End of self-consistent calculation

          k = 0.0000 0.0000 0.0000 (  2053 PWs)   bands (ev):

   -12.5253 -11.3149 -10.6175  -7.1935  -6.8086  -2.4370  -1.4431   0.4113
     0.9681   1.0257   1.2444   1.8276   1.9329   2.8360   4.6859   5.7460
     8.8756  11.1861  11.7875  13.0274

          k = 0.0578 0.0123 0.6120 (  2071 PWs)   bands (ev):

   -11.8093 -10.7062  -9.8696  -6.9183  -6.0659  -2.4818  -1.6078  -1.2081
    -0.5409   0.5505   1.1760   1.2258   1.7125   1.9832   4.9807   6.4179
     6.5903   8.5719  11.8556  12.7661

          k = 0.1156 0.0245 1.2240 (  2068 PWs)   bands (ev):

    -9.7408  -8.9225  -7.9489  -6.7088  -6.0159  -4.3394  -3.9280  -3.1565
    -2.0955  -1.0265  -0.5803   3.2933   3.4024   3.7999   4.6719   5.5580
     5.5850   6.9103   9.3280  10.9823

          k = 0.0718 0.6279 0.0113 (  2082 PWs)   bands (ev):

   -12.2521 -11.4607 -10.3141  -8.3829  -5.7068  -3.6760  -0.8933  -0.3266
    -0.2228   0.9759   1.5003   2.0974   2.6683   3.0682   4.8992   7.7995
     9.1044  10.7113  11.7003  13.8007

          k = 0.1296 0.6402 0.6233 (  2061 PWs)   bands (ev):

   -11.5684 -10.6926  -9.8232  -7.5512  -5.6616  -3.0324  -1.4872  -0.8171
    -0.4266   0.1051   0.2840   0.4477   1.0684   3.6874   5.5587   6.5745
     7.7722   8.4131  11.5198  13.3368

          k = 0.1874 0.6525 1.2353 (  2055 PWs)   bands (ev):

    -9.5602  -8.6957  -8.1914  -6.5751  -6.1461  -4.2949  -4.0048  -3.3439
    -2.1614  -0.9874  -0.5792   2.0344   2.5660   4.2763   4.6497   5.3627
     6.4269   7.2472   9.8366  11.4705

          k =-0.0438 0.6034-1.2127 (  2062 PWs)   bands (ev):

    -9.4824  -9.0442  -7.4910  -7.2290  -5.8518  -4.5634  -4.1559  -2.6148
    -2.3552  -1.0484  -0.7423   1.8131   2.9863   4.2809   4.4993   5.7239
     5.8026   7.6081   9.5534  11.8519

          k = 0.0140 0.6157-0.6007 (  2055 PWs)   bands (ev):

   -11.5327 -10.8763  -9.4856  -7.9976  -4.9889  -3.6998  -1.4858  -0.3848
    -0.3087  -0.2662   0.3553   0.8187   0.8703   3.6662   4.9682   6.7574
     8.1585   8.6758  10.5669  14.0388

          k =-0.5150-0.0509-0.0434 (  2054 PWs)   bands (ev):

   -12.3426 -11.8684  -9.8663  -8.4101  -5.3003  -3.9372  -0.1093   0.4467
     0.9202   0.9515   1.2812   1.5868   2.1764   2.5992   3.2964   8.0706
     9.2916  10.0909  10.5802  12.8635

          k =-0.4572-0.0387 0.5686 (  2068 PWs)   bands (ev):

   -11.6700 -11.1264  -9.2868  -7.7724  -5.0267  -3.5220  -1.5690  -0.4765
    -0.2906   0.3537   0.8532   1.2134   1.6687   2.3285   3.8950   6.8052
     8.2334   8.2845  10.0223  13.4064

          k =-0.3994-0.0264 1.1807 (  2064 PWs)   bands (ev):

    -9.6954  -9.0593  -7.7424  -6.8965  -5.8937  -4.4628  -4.0030  -2.9395
    -2.0879  -1.0666  -0.6308   3.2451   3.3382   4.0877   4.6118   5.2280
     5.6688   7.0976   9.2902  11.1796

          k =-0.4432 0.5770-0.0321 (  2070 PWs)   bands (ev):

   -12.1994 -11.5380 -10.3945  -7.8895  -6.5222  -2.8145  -1.2597  -0.9938
     0.8840   0.9846   1.6488   1.8347   2.0347   2.7404   5.6098   7.9142
     8.8879  11.0470  11.4771  13.1782

          k =-0.3854 0.5893 0.5799 (  2056 PWs)   bands (ev):

   -11.4817 -10.9309  -9.5841  -7.6729  -5.6308  -3.0544  -1.5101  -0.7546
    -0.5089  -0.3537   0.3861   1.0305   1.8080   2.3483   5.7206   6.6010
     8.3734   8.6060  10.5994  13.8694

          k =-0.3276 0.6015 1.1919 (  2063 PWs)   bands (ev):

    -9.4572  -9.0502  -7.6241  -7.0961  -5.8677  -4.5443  -4.1433  -2.8397
    -2.1918  -1.0783  -0.6798   1.7158   3.1541   4.1443   4.5289   5.6820
     5.9342   7.4400   9.7737  11.9034

          k =-0.5588 0.5525-1.2561 (  2049 PWs)   bands (ev):

    -9.5648  -8.6987  -8.2211  -6.4510  -6.2147  -4.1766  -4.0917  -3.4166
    -2.1863  -0.9171  -0.5890   1.9659   2.8050   4.1048   4.7022   5.2920
     6.4783   7.0247  10.1405  11.3616

          k =-0.5010 0.5647-0.6441 (  2065 PWs)   bands (ev):

   -11.5402 -10.7472  -9.8763  -7.0036  -6.3756  -2.3580  -1.6185  -1.2218
    -0.4598  -0.3402   0.4845   1.1719   1.2641   2.7290   6.2642   6.4285
     7.5345   8.5487  11.6811  13.1065

     the Fermi energy is     6.5797 ev

!    total energy              =     -90.76156651 Ry
     Harris-Foulkes estimate   =     -90.76156651 Ry
     estimated scf accuracy    <          1.0E-09 Ry

     The total energy is the sum of the following terms:

     one-electron contribution =     -16.32092866 Ry
     hartree contribution      =      23.68948087 Ry
     xc contribution           =     -27.67073219 Ry
     ewald contribution        =     -70.45738456 Ry
     smearing contrib. (-TS)   =      -0.00200196 Ry

     convergence has been achieved in  11 iterations

     Forces acting on atoms (cartesian axes, Ry/au):

     atom    1 type  1   force =    -0.02800945    0.01783219   -0.00220701
     atom    2 type  1   force =     0.03195563   -0.01289646    0.00389027
     atom    3 type  1   force =     0.00567496   -0.01439552   -0.00049036
     atom    4 type  1   force =    -0.03145426    0.01237583   -0.00389950
     atom    5 type  1   force =    -0.00474256    0.01454991    0.00051767
     atom    6 type  1   force =     0.02675897   -0.01739186    0.00216980
     atom    7 type  1   force =    -0.00006145    0.00147632   -0.00098746
     atom    8 type  1   force =    -0.00012184   -0.00155040    0.00100658

     Total force =     0.070510     Total SCF correction =     0.000054


     Computing stress (Cartesian axis) and pressure

          total   stress  (Ry/bohr**3)                   (kbar)     P=        4.55
   0.00029947  -0.00003165   0.00010370           44.05       -4.66       15.25
  -0.00003165   0.00035111  -0.00001024           -4.66       51.65       -1.51
   0.00010370  -0.00001024  -0.00055777           15.25       -1.51      -82.05


     BFGS Geometry Optimization

     number of scf cycles    =   1
     number of bfgs steps    =   0

     enthalpy new            =     -90.7615336592 Ry

     new trust radius        =       0.0623720477 bohr
     new conv_thr            =       0.0000000100 Ry

     new unit-cell volume =    484.24546 a.u.^3 (    71.75777 Ang^3 )
     density =      2.22153 g/cm^3

CELL_PARAMETERS (bohr)
  14.072877026  -1.599345419  -1.233417244
  -0.754469689   7.647838044  -0.084525343
  -0.378513548  -0.040427936   4.585142804

ATOMIC_POSITIONS (crystal)
C             0.2217475361        0.2783706607        0.1212386648
C             0.3692653227        0.1169432013        0.1939824185
C             0.0726971761        0.4276095699        1.0471953539
C             0.4502214446        0.0294029582        0.7355335846
C             0.7461331328        0.7170313269        0.8818563250
C             0.5975041779        0.8676399203        0.8080395832
C             0.8292211015        0.6409066877        0.4240071225
C            -0.0105278917        0.5034536750        0.5049709475



     Writing output data file ./pp.save/
     NEW-OLD atomic charge density approx. for the potential
     extrapolated charge   32.06852, renormalised to   32.00000

     total cpu time spent up to now is       10.3 secs

     Self-consistent Calculation

     iteration #  1     ecut=    40.00 Ry     beta= 0.50
     Davidson diagonalization with overlap
     ethr =  1.00E-06,  avg # of iterations =  8.8

     total cpu time spent up to now is       13.0 secs

     total energy              =     -90.76024439 Ry
     Harris-Foulkes estimate   =     -90.74149085 Ry
     estimated scf accuracy    <       0.01154466 Ry

     iteration #  2     ecut=    40.00 Ry     beta= 0.50
     Davidson diagonalization with overlap
     ethr =  3.61E-05,  avg # of iterations =  3.3

     total cpu time spent up to now is       14.1 secs

     total energy              =     -90.76037315 Ry
     Harris-Foulkes estimate   =     -90.76726958 Ry
     estimated scf accuracy    <       0.02001749 Ry

     iteration #  3     ecut=    40.00 Ry     beta= 0.50
     Davidson diagonalization with overlap
     ethr =  3.61E-05,  avg # of iterations =  3.2

     total cpu time spent up to now is       15.1 secs

     total energy              =     -90.76392219 Ry
     Harris-Foulkes estimate   =     -90.76438813 Ry
     estimated scf accuracy    <       0.00142191 Ry

     iteration #  4     ecut=    40.00 Ry     beta= 0.50
     Davidson diagonalization with overlap
     ethr =  4.44E-06,  avg # of iterations =  2.4

     total cpu time spent up to now is       15.9 secs

     total energy              =     -90.76411756 Ry
     Harris-Foulkes estimate   =     -90.76414022 Ry
     estimated scf accuracy    <       0.00005424 Ry

     iteration #  5     ecut=    40.00 Ry     beta= 0.50
     Davidson diagonalization with overlap
     ethr =  1.70E-07,  avg # of iterations =  2.8

     total cpu time spent up to now is       16.9 secs

     total energy              =     -90.76413334 Ry
     Harris-Foulkes estimate   =     -90.76413684 Ry
     estimated scf accuracy    <       0.00001130 Ry

     iteration #  6     ecut=    40.00 Ry     beta= 0.50
     Davidson diagonalization with overlap
     ethr =  3.53E-08,  avg # of iterations =  2.0

     total cpu time spent up to now is       17.8 secs

     total energy              =     -90.76413466 Ry
     Harris-Foulkes estimate   =     -90.76413500 Ry
     estimated scf accuracy    <       0.00000145 Ry

     iteration #  7     ecut=    40.00 Ry     beta= 0.50
     Davidson diagonalization with overlap
     ethr =  4.52E-09,  avg # of iterations =  2.2

     total cpu time spent up to now is       18.7 secs

     total energy              =     -90.76413480 Ry
     Harris-Foulkes estimate   =     -90.76413530 Ry
     estimated scf accuracy    <       0.00000201 Ry

     iteration #  8     ecut=    40.00 Ry     beta= 0.50
     Davidson diagonalization with overlap
     ethr =  4.52E-09,  avg # of iterations =  1.6

     total cpu time spent up to now is       19.5 secs

     total energy              =     -90.76413502 Ry
     Harris-Foulkes estimate   =     -90.76413508 Ry
     estimated scf accuracy    <       0.00000019 Ry

     iteration #  9     ecut=    40.00 Ry     beta= 0.50
     Davidson diagonalization with overlap
     ethr =  6.03E-10,  avg # of iterations =  2.1

     total cpu time spent up to now is       20.4 secs

     total energy              =     -90.76413506 Ry
     Harris-Foulkes estimate   =     -90.76413506 Ry
     estimated scf accuracy    <       0.00000001 Ry

     iteration # 10     ecut=    40.00 Ry     beta= 0.50
     Davidson diagonalization with overlap
     ethr =  3.50E-11,  avg # of iterations =  2.3

     total cpu time spent up to now is       21.5 secs

     End of self-consistent calculation

          k = 0.0000 0.0000 0.0000 (  2053 PWs)   bands (ev):

   -12.5887 -11.4440 -10.7735  -7.1151  -7.0053  -2.6396  -1.4880   0.3491
     0.8779   1.1309   1.2580   1.7750   1.8615   2.9378   4.7458   5.5095
     9.1910  11.1155  11.7015  12.8918

          k = 0.0558 0.0124 0.6205 (  2071 PWs)   bands (ev):

   -11.8506 -10.8089 -10.0069  -6.8801  -6.1323  -2.6130  -1.4686  -1.1544
    -0.6738   0.5430   1.1406   1.1934   1.6104   1.9016   5.0358   6.2995
     6.6319   8.3791  11.8796  12.7085

          k = 0.1116 0.0247 1.2410 (  2068 PWs)   bands (ev):

    -9.7126  -8.9257  -7.9745  -6.6310  -5.8839  -4.3976  -4.0982  -3.2948
    -2.0498  -1.1552  -0.6055   3.3255   3.4451   3.8419   4.4680   5.2866
     5.6262   7.0065   9.2898  10.9265

          k = 0.0717 0.6225 0.0114 (  2082 PWs)   bands (ev):

   -12.3194 -11.6024 -10.4980  -8.3841  -5.7424  -3.8887  -0.9202  -0.3518
    -0.2888   1.2509   1.3990   1.9896   2.8225   2.8463   4.9325   7.5323
     9.4313  10.6737  11.6873  13.4197

          k = 0.1275 0.6349 0.6319 (  2061 PWs)   bands (ev):

   -11.6158 -10.8115  -9.9648  -7.5277  -5.6743  -3.1678  -1.3082  -0.7998
    -0.5788   0.1116   0.2486   0.4659   1.0226   3.5309   5.6157   6.6484
     7.5921   8.2357  11.5428  13.3017

          k = 0.1833 0.6473 1.2524 (  2055 PWs)   bands (ev):

    -9.5398  -8.7188  -8.2090  -6.4987  -6.0090  -4.3438  -4.1533  -3.5047
    -2.1112  -1.1107  -0.6085   2.1121   2.6422   4.3936   4.4625   5.1143
     6.3421   7.3424   9.8056  11.3229

          k =-0.0398 0.5978-1.2296 (  2062 PWs)   bands (ev):

    -9.4544  -9.0661  -7.6282  -7.0421  -5.6863  -4.6204  -4.3542  -2.6824
    -2.4324  -1.0982  -0.7812   1.9033   3.0448   4.2599   4.4683   5.4912
     5.6991   7.7356   9.4564  11.6971

          k = 0.0160 0.6102-0.6091 (  2055 PWs)   bands (ev):

   -11.5754 -10.9932  -9.6704  -7.9375  -4.9334  -3.9027  -1.3101  -0.4975
    -0.3201  -0.2645   0.4073   0.7442   0.8226   3.4930   5.0381   6.8394
     7.9659   8.4481  10.6441  14.0124

          k =-0.5111-0.0509-0.0426 (  2054 PWs)   bands (ev):

   -12.3934 -11.9974 -10.0947  -8.3893  -5.2828  -4.2169  -0.1020   0.3892
     0.8005   1.1378   1.1911   1.4457   2.0445   2.7906   3.3170   7.7751
     9.6264  10.1888  10.5272  12.7244

          k =-0.4553-0.0385 0.5779 (  2068 PWs)   bands (ev):

   -11.7025 -11.2292  -9.4804  -7.7198  -4.9880  -3.7190  -1.3958  -0.5239
    -0.3752   0.4124   0.7719   1.1782   1.5708   2.2136   3.9476   6.8782
     8.0405   8.0816  10.1112  13.3477

          k =-0.3995-0.0262 1.1984 (  2064 PWs)   bands (ev):

    -9.6630  -9.0709  -7.7644  -6.8258  -5.7459  -4.5157  -4.1978  -3.0369
    -2.1114  -1.1406  -0.6712   3.2820   3.3737   4.1366   4.4072   5.2596
     5.3964   7.2141   9.2355  11.1118

          k =-0.4394 0.5716-0.0312 (  2070 PWs)   bands (ev):

   -12.2670 -11.6736 -10.5719  -7.8926  -6.6020  -3.0009  -1.2898  -1.0340
     0.7885   1.2650   1.5634   1.7348   1.9425   2.8697   5.5486   7.6514
     9.2075  10.9934  11.4703  12.9211

          k =-0.3836 0.5840 0.5893 (  2056 PWs)   bands (ev):

   -11.5229 -11.0454  -9.7547  -7.6239  -5.6549  -3.1823  -1.3351  -0.7389
    -0.5158  -0.5022   0.4181   0.9841   1.7397   2.2767   5.7031   6.6732
     8.1908   8.4163  10.6354  13.8317

          k =-0.3278 0.5964 1.2098 (  2063 PWs)   bands (ev):

    -9.4279  -9.0724  -7.7113  -6.9579  -5.7064  -4.6051  -4.3333  -2.9424
    -2.2177  -1.1560  -0.7093   1.8021   3.2234   4.2185   4.3623   5.4298
     5.8840   7.5573   9.6899  11.7176

          k =-0.5509 0.5469-1.2723 (  2049 PWs)   bands (ev):

    -9.5451  -8.7193  -8.2397  -6.3828  -6.0700  -4.2249  -4.2013  -3.6288
    -2.1104  -1.0719  -0.6008   2.0417   2.8927   4.2075   4.5095   5.0385
     6.4202   7.1097  10.1035  11.2104

          k =-0.4952 0.5593-0.6517 (  2065 PWs)   bands (ev):

   -11.5888 -10.8595 -10.0158  -6.9410  -6.4543  -2.4891  -1.4987  -1.1364
    -0.6094  -0.3403   0.4901   1.1436   1.2227   2.6346   6.2647   6.5005
     7.3757   8.3717  11.6530  13.0805

     the Fermi energy is     6.5923 ev

!    total energy              =     -90.76413506 Ry
     Harris-Foulkes estimate   =     -90.76413506 Ry
     estimated scf accuracy    <          3.0E-10 Ry

     The total energy is the sum of the following terms:

     one-electron contribution =     -17.15192597 Ry
     hartree contribution      =      24.06042986 Ry
     xc contribution           =     -27.66992765 Ry
     ewald contribution        =     -70.00184425 Ry
     smearing contrib. (-TS)   =      -0.00086706 Ry

     convergence has been achieved in  10 iterations

     Forces acting on atoms (cartesian axes, Ry/au):

     atom    1 type  1   force =     0.02925295   -0.02083003    0.00201772
     atom    2 type  1   force =    -0.02771978    0.02329153   -0.00203979
     atom    3 type  1   force =    -0.00459244   -0.00580631    0.00038463
     atom    4 type  1   force =     0.02674040   -0.02297808    0.00193214
     atom    5 type  1   force =     0.00383200    0.00671096   -0.00041068
     atom    6 type  1   force =    -0.02767910    0.01970403   -0.00185628
     atom    7 type  1   force =     0.02337685   -0.01032011    0.00306394
     atom    8 type  1   force =    -0.02321088    0.01022801   -0.00309168

     Total force =     0.080271     Total SCF correction =     0.000019


     Computing stress (Cartesian axis) and pressure

          total   stress  (Ry/bohr**3)                   (kbar)     P=       -0.72
  -0.00024238   0.00031515   0.00000480          -35.65       46.36        0.71
   0.00031515   0.00009254   0.00001195           46.36       13.61        1.76
   0.00000480   0.00001195   0.00013519            0.71        1.76       19.89


     number of scf cycles    =   2
     number of bfgs steps    =   1

     enthalpy old            =     -90.7615336592 Ry
     enthalpy new            =     -90.7641021394 Ry

     CASE: enthalpy_new < enthalpy_old

     new trust radius        =       0.0267540561 bohr
     new conv_thr            =       0.0000000026 Ry

     new unit-cell volume =    484.39855 a.u.^3 (    71.78046 Ang^3 )
     density =      2.22082 g/cm^3

CELL_PARAMETERS (bohr)
  14.034908091  -1.536549087  -1.222256266
  -0.715772619   7.671818694  -0.083957097
  -0.374521556  -0.041908615   4.579421704

ATOMIC_POSITIONS (crystal)
C             0.2225885974        0.2773129383        0.1216272991
C             0.3685908473        0.1184088550        0.1937329652
C             0.0725263558        0.4266062637        1.0471563436
C             0.4508580198        0.0279397754        0.7357568516
C             0.7462885933        0.7181149385        0.8818900199
C             0.5967123377        0.8686244265        0.8076842666
C             0.8303055837        0.6402859404        0.4246770516
C            -0.0116083351        0.5040648622        0.5042992024



     Writing output data file ./pp.save/
     NEW-OLD atomic charge density approx. for the potential
     extrapolated charge   32.01011, renormalised to   32.00000

     total cpu time spent up to now is       21.5 secs

     Self-consistent Calculation

     iteration #  1     ecut=    40.00 Ry     beta= 0.50
     Davidson diagonalization with overlap
     ethr =  1.00E-06,  avg # of iterations =  6.6

     total cpu time spent up to now is       24.1 secs

     total energy              =     -90.76611630 Ry
     Harris-Foulkes estimate   =     -90.76320822 Ry
     estimated scf accuracy    <       0.00202247 Ry

     iteration #  2     ecut=    40.00 Ry     beta= 0.50
     Davidson diagonalization with overlap
     ethr =  6.32E-06,  avg # of iterations =  3.1

     total cpu time spent up to now is       25.4 secs

     total energy              =     -90.76621069 Ry
     Harris-Foulkes estimate   =     -90.76722749 Ry
     estimated scf accuracy    <       0.00284278 Ry

     iteration #  3     ecut=    40.00 Ry     beta= 0.50
     Davidson diagonalization with overlap
     ethr =  6.32E-06,  avg # of iterations =  3.0

     total cpu time spent up to now is       26.6 secs

     total energy              =     -90.76670160 Ry
     Harris-Foulkes estimate   =     -90.76680963 Ry
     estimated scf accuracy    <       0.00031538 Ry

     iteration #  4     ecut=    40.00 Ry     beta= 0.50
     Davidson diagonalization with overlap
     ethr =  9.86E-07,  avg # of iterations =  2.0

     total cpu time spent up to now is       27.6 secs

     total energy              =     -90.76675138 Ry
     Harris-Foulkes estimate   =     -90.76675659 Ry
     estimated scf accuracy    <       0.00001502 Ry

     iteration #  5     ecut=    40.00 Ry     beta= 0.50
     Davidson diagonalization with overlap
     ethr =  4.69E-08,  avg # of iterations =  2.5

     total cpu time spent up to now is       29.0 secs

     total energy              =     -90.76675491 Ry
     Harris-Foulkes estimate   =     -90.76675576 Ry
     estimated scf accuracy    <       0.00000257 Ry

     iteration #  6     ecut=    40.00 Ry     beta= 0.50
     Davidson diagonalization with overlap
     ethr =  8.04E-09,  avg # of iterations =  2.1

     total cpu time spent up to now is       30.2 secs

     total energy              =     -90.76675525 Ry
     Harris-Foulkes estimate   =     -90.76675536 Ry
     estimated scf accuracy    <       0.00000039 Ry

     iteration #  7     ecut=    40.00 Ry     beta= 0.50
     Davidson diagonalization with overlap
     ethr =  1.21E-09,  avg # of iterations =  2.2

     total cpu time spent up to now is       31.5 secs

     total energy              =     -90.76675528 Ry
     Harris-Foulkes estimate   =     -90.76675547 Ry
     estimated scf accuracy    <       0.00000078 Ry

     iteration #  8     ecut=    40.00 Ry     beta= 0.50
     Davidson diagonalization with overlap
     ethr =  1.21E-09,  avg # of iterations =  2.1

     total cpu time spent up to now is       32.7 secs

     total energy              =     -90.76675536 Ry
     Harris-Foulkes estimate   =     -90.76675538 Ry
     estimated scf accuracy    <       0.00000005 Ry

     iteration #  9     ecut=    40.00 Ry     beta= 0.50
     Davidson diagonalization with overlap
     ethr =  1.60E-10,  avg # of iterations =  2.2

     total cpu time spent up to now is       34.2 secs

     End of self-consistent calculation

          k = 0.0000 0.0000 0.0000 (  2053 PWs)   bands (ev):

   -12.6553 -11.5158 -10.7800  -7.2551  -7.0724  -2.6556  -1.5855   0.2855
     0.7934   1.1256   1.2612   1.6398   1.9458   3.0567   4.7206   5.5473
     9.1078  11.2161  11.5942  12.9294

          k = 0.0554 0.0120 0.6212 (  2071 PWs)   bands (ev):

   -11.9158 -10.8724 -10.0164  -6.9901  -6.2324  -2.6336  -1.5470  -1.2009
    -0.6117   0.6333   1.0200   1.1212   1.5285   1.8928   5.0181   6.3189
     6.5839   8.4531  11.9038  12.6060

          k = 0.1108 0.0239 1.2424 (  2068 PWs)   bands (ev):

    -9.7739  -8.9783  -8.0052  -6.6831  -5.9672  -4.4105  -4.0813  -3.3270
    -2.1563  -1.1883  -0.6966   3.2206   3.3758   3.7889   4.4645   5.3134
     5.6246   6.9770   9.4072  10.9996

          k = 0.0689 0.6200 0.0113 (  2082 PWs)   bands (ev):

   -12.3975 -11.6726 -10.4860  -8.5016  -5.8484  -3.8991  -0.9477  -0.4448
    -0.3519   1.2529   1.2727   2.0817   2.8527   2.9300   4.8159   7.5912
     9.3658  10.7393  11.6130  13.5734

          k = 0.1243 0.6319 0.6325 (  2061 PWs)   bands (ev):

   -11.6921 -10.8815  -9.9563  -7.6404  -5.7639  -3.2005  -1.3385  -0.8773
    -0.5238   0.0586   0.2191   0.5489   0.9041   3.5049   5.5287   6.6017
     7.6262   8.2995  11.5115  13.3856

          k = 0.1797 0.6439 1.2537 (  2055 PWs)   bands (ev):

    -9.6103  -8.7910  -8.2124  -6.5770  -6.0762  -4.3521  -4.1322  -3.5207
    -2.2363  -1.1197  -0.7088   2.0589   2.6032   4.3071   4.4490   5.1439
     6.3373   7.2957   9.8997  11.3984

          k =-0.0420 0.5960-1.2311 (  2062 PWs)   bands (ev):

    -9.5266  -9.1241  -7.5958  -7.1622  -5.7739  -4.5983  -4.3606  -2.7109
    -2.4768  -1.2034  -0.8433   1.8703   2.9672   4.2577   4.4018   5.4964
     5.6995   7.6866   9.5491  11.7862

          k = 0.0134 0.6080-0.6099 (  2055 PWs)   bands (ev):

   -11.6520 -11.0577  -9.6494  -8.0657  -5.0657  -3.8937  -1.3343  -0.4386
    -0.3995  -0.2895   0.4657   0.6366   0.7518   3.5215   4.9125   6.8093
     8.0172   8.5123  10.5777  14.0697

          k =-0.5119-0.0482-0.0423 (  2054 PWs)   bands (ev):

   -12.4696 -12.0452 -10.0842  -8.5348  -5.4163  -4.2101  -0.1914   0.2956
     0.7323   1.0305   1.1980   1.4817   2.1374   2.8926   3.2457   7.8847
     9.5638  10.1182  10.5821  12.6463

          k =-0.4565-0.0363 0.5789 (  2068 PWs)   bands (ev):

   -11.7733 -11.2796  -9.4704  -7.8620  -5.1064  -3.7333  -1.4114  -0.5253
    -0.3979   0.4783   0.6665   1.0895   1.4907   2.2593   3.8760   6.8409
     8.1269   8.1430  10.0672  13.2506

          k =-0.4011-0.0243 1.2001 (  2064 PWs)   bands (ev):

    -9.7229  -9.1282  -7.7737  -6.9056  -5.8260  -4.5162  -4.1920  -3.0697
    -2.1924  -1.1991  -0.7570   3.1980   3.2741   4.1077   4.4080   5.2280
     5.4191   7.2004   9.3491  11.1858

          k =-0.4431 0.5717-0.0310 (  2070 PWs)   bands (ev):

   -12.3523 -11.7272 -10.5826  -7.9996  -6.6826  -3.0341  -1.3309  -1.1257
     0.7587   1.2681   1.4793   1.6428   2.0279   2.9858   5.4842   7.6716
     9.1331  11.0807  11.4524  12.9387

          k =-0.3876 0.5837 0.5902 (  2056 PWs)   bands (ev):

   -11.6064 -11.0967  -9.7560  -7.7351  -5.7494  -3.2101  -1.3652  -0.8239
    -0.5416  -0.4561   0.4975   0.8680   1.6601   2.2817   5.6307   6.6355
     8.2486   8.4444  10.6226  13.8888

          k =-0.3322 0.5957 1.2114 (  2063 PWs)   bands (ev):

    -9.5027  -9.1254  -7.7128  -7.0413  -5.7994  -4.5902  -4.3313  -2.9685
    -2.2734  -1.2437  -0.7811   1.7606   3.1592   4.1656   4.3416   5.4425
     5.8756   7.5188   9.7807  11.8084

          k =-0.5539 0.5478-1.2734 (  2049 PWs)   bands (ev):

    -9.6169  -8.7855  -8.2527  -6.4423  -6.1521  -4.2386  -4.1777  -3.6374
    -2.2448  -1.0678  -0.7085   1.9863   2.8716   4.0986   4.4953   5.0760
     6.4177   7.0677  10.1926  11.2772

          k =-0.4985 0.5598-0.6522 (  2065 PWs)   bands (ev):

   -11.6696 -10.9155 -10.0261  -7.0554  -6.5243  -2.5188  -1.5861  -1.1734
    -0.5531  -0.3879   0.5843   1.0334   1.1950   2.5699   6.2097   6.4483
     7.3750   8.4464  11.6759  13.1203

     the Fermi energy is     6.5621 ev

!    total energy              =     -90.76675537 Ry
     Harris-Foulkes estimate   =     -90.76675537 Ry
     estimated scf accuracy    <          1.8E-09 Ry

     The total energy is the sum of the following terms:

     one-electron contribution =     -18.20228939 Ry
     hartree contribution      =      24.57259871 Ry
     xc contribution           =     -27.72458274 Ry
     ewald contribution        =     -69.41133044 Ry
     smearing contrib. (-TS)   =      -0.00115151 Ry

     convergence has been achieved in   9 iterations

     Forces acting on atoms (cartesian axes, Ry/au):

     atom    1 type  1   force =     0.00271032   -0.00282462    0.00006625
     atom    2 type  1   force =    -0.00181615    0.00284340    0.00058488
     atom    3 type  1   force =    -0.00743849   -0.00201883   -0.00176780
     atom    4 type  1   force =     0.00182966   -0.00310424   -0.00061073
     atom    5 type  1   force =     0.00787320    0.00200250    0.00181183
     atom    6 type  1   force =    -0.00315041    0.00298904   -0.00007329
     atom    7 type  1   force =    -0.01285650    0.01155014   -0.00161169
     atom    8 type  1   force =     0.01284835   -0.01143739    0.00160057

     Total force =     0.028122     Total SCF correction =     0.000105


     Computing stress (Cartesian axis) and pressure

          total   stress  (Ry/bohr**3)                   (kbar)     P=       26.14
   0.00013224   0.00005934  -0.00000818           19.45        8.73       -1.20
   0.00005934   0.00022795   0.00001380            8.73       33.53        2.03
  -0.00000818   0.00001380   0.00017280           -1.20        2.03       25.42


     number of scf cycles    =   3
     number of bfgs steps    =   2

     enthalpy old            =     -90.7641021394 Ry
     enthalpy new            =     -90.7667224382 Ry

     CASE: enthalpy_new < enthalpy_old

     new trust radius        =       0.0361041620 bohr
     new conv_thr            =       0.0000000013 Ry

     new unit-cell volume =    491.16321 a.u.^3 (    72.78288 Ang^3 )
     density =      2.19024 g/cm^3

CELL_PARAMETERS (bohr)
  14.065729933  -1.498883382  -1.226416166
  -0.690624581   7.725980694  -0.081261317
  -0.375145358  -0.041692984   4.597389986

ATOMIC_POSITIONS (crystal)
C             0.2231034691        0.2765401261        0.1218404317
C             0.3682233379        0.1193829378        0.1937488801
C             0.0718648529        0.4257474381        1.0465742649
C             0.4512087216        0.0269295447        0.7357233026
C             0.7469777370        0.7190132121        0.8824894598
C             0.5961849095        0.8693825243        0.8074742961
C             0.8298672948        0.6414275554        0.4243705259
C            -0.0111683228        0.5029346615        0.5046028390



     Writing output data file ./pp.save/
     NEW-OLD atomic charge density approx. for the potential
     extrapolated charge   32.44072, renormalised to   32.00000

     total cpu time spent up to now is       34.3 secs

     Self-consistent Calculation

     iteration #  1     ecut=    40.00 Ry     beta= 0.50
     Davidson diagonalization with overlap
     ethr =  1.00E-06,  avg # of iterations =  6.7

     total cpu time spent up to now is       37.7 secs

     total energy              =     -90.76306142 Ry
     Harris-Foulkes estimate   =     -90.57584574 Ry
     estimated scf accuracy    <       0.00399337 Ry

     iteration #  2     ecut=    40.00 Ry     beta= 0.50
     Davidson diagonalization with overlap
     ethr =  1.25E-05,  avg # of iterations =  4.4

     total cpu time spent up to now is       40.3 secs

     total energy              =     -90.76722768 Ry
     Harris-Foulkes estimate   =     -90.77029205 Ry
     estimated scf accuracy    <       0.00997301 Ry

     iteration #  3     ecut=    40.00 Ry     beta= 0.50
     Davidson diagonalization with overlap
     ethr =  1.25E-05,  avg # of iterations =  3.2

     total cpu time spent up to now is       42.1 secs

     total energy              =     -90.76832522 Ry
     Harris-Foulkes estimate   =     -90.76858007 Ry
     estimated scf accuracy    <       0.00099456 Ry

     iteration #  4     ecut=    40.00 Ry     beta= 0.50
     Davidson diagonalization with overlap
     ethr =  3.11E-06,  avg # of iterations =  1.3

     total cpu time spent up to now is       43.4 secs

     total energy              =     -90.76819775 Ry
     Harris-Foulkes estimate   =     -90.76838344 Ry
     estimated scf accuracy    <       0.00046127 Ry

     iteration #  5     ecut=    40.00 Ry     beta= 0.50
     Davidson diagonalization with overlap
     ethr =  1.44E-06,  avg # of iterations =  1.6

     total cpu time spent up to now is       44.7 secs

     total energy              =     -90.76817930 Ry
     Harris-Foulkes estimate   =     -90.76822764 Ry
     estimated scf accuracy    <       0.00008890 Ry

     iteration #  6     ecut=    40.00 Ry     beta= 0.50
     Davidson diagonalization with overlap
     ethr =  2.78E-07,  avg # of iterations =  2.1

     total cpu time spent up to now is       46.5 secs

     total energy              =     -90.76819768 Ry
     Harris-Foulkes estimate   =     -90.76819928 Ry
     estimated scf accuracy    <       0.00000633 Ry

     iteration #  7     ecut=    40.00 Ry     beta= 0.50
     Davidson diagonalization with overlap
     ethr =  1.98E-08,  avg # of iterations =  2.0

     total cpu time spent up to now is       48.0 secs

     total energy              =     -90.76819841 Ry
     Harris-Foulkes estimate   =     -90.76819872 Ry
     estimated scf accuracy    <       0.00000086 Ry

     iteration #  8     ecut=    40.00 Ry     beta= 0.50
     Davidson diagonalization with overlap
     ethr =  2.68E-09,  avg # of iterations =  2.1

     total cpu time spent up to now is       49.8 secs

     total energy              =     -90.76819855 Ry
     Harris-Foulkes estimate   =     -90.76819856 Ry
     estimated scf accuracy    <       0.00000006 Ry

     iteration #  9     ecut=    40.00 Ry     beta= 0.50
     Davidson diagonalization with overlap
     ethr =  1.79E-10,  avg # of iterations =  3.0

     total cpu time spent up to now is       52.0 secs

     total energy              =     -90.76819856 Ry
     Harris-Foulkes estimate   =     -90.76819858 Ry
     estimated scf accuracy    <       0.00000006 Ry

     iteration # 10     ecut=    40.00 Ry     beta= 0.50
     Davidson diagonalization with overlap
     ethr =  1.79E-10,  avg # of iterations =  2.0

     total cpu time spent up to now is       53.7 secs

     End of self-consistent calculation

          k = 0.0000 0.0000 0.0000 (  2053 PWs)   bands (ev):

   -12.7442 -11.6021 -10.8891  -7.4324  -7.1281  -2.7494  -1.7226   0.1624
     0.6581   0.9915   1.0218   1.5543   1.8441   2.8067   4.5646   5.5159
     8.8894  11.0585  11.3708  12.7845

          k = 0.0552 0.0114 0.6188 (  2071 PWs)   bands (ev):

   -12.0118 -10.9644 -10.1324  -7.1355  -6.3379  -2.7438  -1.7078  -1.3821
    -0.6981   0.4188   0.9273   0.9856   1.3881   1.7556   4.8782   6.2380
     6.4208   8.3277  11.7357  12.3796

          k = 0.1103 0.0229 1.2375 (  2068 PWs)   bands (ev):

    -9.8915  -9.0934  -8.1424  -6.8241  -6.1346  -4.5502  -4.1839  -3.4440
    -2.2930  -1.3073  -0.8085   3.0460   3.2154   3.6542   4.3474   5.2107
     5.4930   6.8211   9.2229  10.8479

          k = 0.0665 0.6152 0.0110 (  2082 PWs)   bands (ev):

   -12.4985 -11.7697 -10.5836  -8.6121  -5.9557  -3.9931  -1.0270  -0.5927
    -0.4602   1.0183   1.1992   1.9894   2.6657   2.6903   4.6533   7.4851
     9.1317  10.6024  11.4259  13.4271

          k = 0.1217 0.6266 0.6298 (  2061 PWs)   bands (ev):

   -11.8004 -10.9817 -10.0631  -7.7632  -5.8744  -3.3078  -1.5361  -1.0303
    -0.6096  -0.0523   0.1338   0.3359   0.8110   3.3286   5.3611   6.4306
     7.5065   8.1770  11.3191  13.2172

          k = 0.1769 0.6380 1.2485 (  2055 PWs)   bands (ev):

    -9.7391  -8.9095  -8.3467  -6.7161  -6.2444  -4.4852  -4.2479  -3.6173
    -2.3704  -1.2405  -0.8204   1.9336   2.4904   4.1448   4.3363   5.0444
     6.1900   7.0853   9.6983  11.2333

          k =-0.0438 0.5923-1.2265 (  2062 PWs)   bands (ev):

    -9.6539  -9.2478  -7.7146  -7.3190  -5.9400  -4.7507  -4.4315  -2.8341
    -2.6190  -1.2792  -0.9870   1.7609   2.8180   4.1388   4.2680   5.3950
     5.5444   7.4906   9.3545  11.6459

          k = 0.0113 0.6037-0.6078 (  2055 PWs)   bands (ev):

   -11.7591 -11.1604  -9.7530  -8.1870  -5.1864  -3.9963  -1.5327  -0.5801
    -0.4971  -0.3726   0.2402   0.5585   0.6230   3.3746   4.7425   6.6264
     7.9155   8.3894  10.3807  13.8825

          k =-0.5104-0.0461-0.0421 (  2054 PWs)   bands (ev):

   -12.5669 -12.1233 -10.1948  -8.6551  -5.5316  -4.3099  -0.3452   0.1489
     0.6042   0.9699   0.9762   1.3677   2.0512   2.6171   3.1361   7.7889
     9.3112   9.9948  10.4584  12.4224

          k =-0.4553-0.0346 0.5767 (  2068 PWs)   bands (ev):

   -11.8750 -11.3667  -9.5857  -7.9934  -5.2293  -3.8438  -1.6023  -0.6649
    -0.4948   0.2588   0.5820   0.9424   1.3450   2.1463   3.7548   6.6568
     8.0215   8.0330   9.9213  13.0192

          k =-0.4001-0.0232 1.1955 (  2064 PWs)   bands (ev):

    -9.8414  -9.2436  -7.9091  -7.0479  -5.9980  -4.6556  -4.2828  -3.1917
    -2.3377  -1.3003  -0.8796   3.0461   3.0930   3.9680   4.2897   5.1012
     5.3185   7.0406   9.1681  11.0241

          k =-0.4439 0.5691-0.0311 (  2070 PWs)   bands (ev):

   -12.4600 -11.8086 -10.6930  -8.1141  -6.7730  -3.1394  -1.4149  -1.2589
     0.6616   1.0308   1.3581   1.5268   1.9273   2.7315   5.3052   7.5411
     8.9147  10.9269  11.3214  12.7303

          k =-0.3887 0.5805 0.5877 (  2056 PWs)   bands (ev):

   -11.7205 -11.1874  -9.8695  -7.8553  -5.8554  -3.3258  -1.5566  -0.9749
    -0.6290  -0.5395   0.2768   0.7771   1.5197   2.1608   5.4469   6.4634
     8.1293   8.2967  10.4711  13.6956

          k =-0.3336 0.5920 1.2065 (  2063 PWs)   bands (ev):

    -9.6339  -9.2444  -7.8424  -7.1873  -5.9667  -4.7390  -4.4045  -3.0938
    -2.4112  -1.3378  -0.9094   1.6521   3.0080   4.0365   4.2222   5.3403
     5.7133   7.3300   9.5756  11.6618

          k =-0.5543 0.5462-1.2686 (  2049 PWs)   bands (ev):

    -9.7461  -8.8960  -8.3953  -6.5688  -6.3334  -4.3600  -4.3146  -3.7225
    -2.3768  -1.2000  -0.8119   1.8613   2.7561   3.9392   4.3852   4.9746
     6.2815   6.8517   9.9744  11.1191

          k =-0.4991 0.5577-0.6498 (  2065 PWs)   bands (ev):

   -11.7820 -11.0019 -10.1451  -7.1996  -6.6062  -2.6302  -1.7425  -1.3638
    -0.6432  -0.4853   0.3726   0.9394   1.1003   2.4025   6.0191   6.2828
     7.2505   8.3186  11.5294  12.9161

     the Fermi energy is     6.4102 ev

!    total energy              =     -90.76819857 Ry
     Harris-Foulkes estimate   =     -90.76819857 Ry
     estimated scf accuracy    <          7.3E-10 Ry

     The total energy is the sum of the following terms:

     one-electron contribution =     -19.43218070 Ry
     hartree contribution      =      25.01320832 Ry
     xc contribution           =     -27.69022990 Ry
     ewald contribution        =     -68.65742508 Ry
     smearing contrib. (-TS)   =      -0.00157121 Ry

     convergence has been achieved in  10 iterations

     Forces acting on atoms (cartesian axes, Ry/au):

     atom    1 type  1   force =    -0.01051633    0.00558415   -0.00095339
     atom    2 type  1   force =     0.00978662   -0.00760807    0.00067159
     atom    3 type  1   force =     0.00189389   -0.00577442   -0.00037376
     atom    4 type  1   force =    -0.00978690    0.00740631   -0.00069268
     atom    5 type  1   force =    -0.00175925    0.00584702    0.00038131
     atom    6 type  1   force =     0.01028051   -0.00558150    0.00094773
     atom    7 type  1   force =     0.00046416    0.00451307    0.00027721
     atom    8 type  1   force =    -0.00036270   -0.00438656   -0.00025802

     Total force =     0.026462     Total SCF correction =     0.000035


     Computing stress (Cartesian axis) and pressure

          total   stress  (Ry/bohr**3)                   (kbar)     P=       11.48
   0.00006097   0.00008624  -0.00000867            8.97       12.69       -1.27
   0.00008624   0.00018836   0.00002260           12.69       27.71        3.33
  -0.00000867   0.00002260  -0.00001518           -1.27        3.33       -2.23


     number of scf cycles    =   4
     number of bfgs steps    =   3

     enthalpy old            =     -90.7667224382 Ry
     enthalpy new            =     -90.7681651770 Ry

     CASE: enthalpy_new < enthalpy_old

     new trust radius        =       0.0863575821 bohr
     new conv_thr            =       0.0000000011 Ry

     new unit-cell volume =    502.86070 a.u.^3 (    74.51627 Ang^3 )
     density =      2.13929 g/cm^3

CELL_PARAMETERS (bohr)
  14.109102962  -1.392286314  -1.228139790
  -0.620233656   7.850341251  -0.071617277
  -0.375847364  -0.039937491   4.609673117

ATOMIC_POSITIONS (crystal)
C             0.2230191694        0.2760031637        0.1216799983
C             0.3684722882        0.1199791394        0.1941352536
C             0.0711717305        0.4230958054        1.0458039279
C             0.4509189534        0.0262526854        0.7352953300
C             0.7477109153        0.7217711908        0.8832841594
C             0.5962540230        0.8698595288        0.8076463533
C             0.8300676531        0.6432675755        0.4245130034
C            -0.0113527328        0.5011289111        0.5044659741



     Writing output data file ./pp.save/
     NEW-OLD atomic charge density approx. for the potential
     extrapolated charge   32.74437, renormalised to   32.00000

     total cpu time spent up to now is       53.8 secs

     Self-consistent Calculation

     iteration #  1     ecut=    40.00 Ry     beta= 0.50
     Davidson diagonalization with overlap
     ethr =  1.00E-06,  avg # of iterations =  8.7

     total cpu time spent up to now is       59.4 secs

     total energy              =     -90.75786059 Ry
     Harris-Foulkes estimate   =     -90.38645422 Ry
     estimated scf accuracy    <       0.00640506 Ry

     iteration #  2     ecut=    40.00 Ry     beta= 0.50
     Davidson diagonalization with overlap
     ethr =  2.00E-05,  avg # of iterations =  4.7

     total cpu time spent up to now is       63.0 secs

     total energy              =     -90.77036460 Ry
     Harris-Foulkes estimate   =     -90.77378720 Ry
     estimated scf accuracy    <       0.01078053 Ry

     iteration #  3     ecut=    40.00 Ry     beta= 0.50
     Davidson diagonalization with overlap
     ethr =  2.00E-05,  avg # of iterations =  2.4

     total cpu time spent up to now is       65.0 secs

     total energy              =     -90.77104542 Ry
     Harris-Foulkes estimate   =     -90.77154754 Ry
     estimated scf accuracy    <       0.00266123 Ry

     iteration #  4     ecut=    40.00 Ry     beta= 0.50
     Davidson diagonalization with overlap
     ethr =  8.32E-06,  avg # of iterations =  1.1

     total cpu time spent up to now is       66.5 secs

     total energy              =     -90.77062387 Ry
     Harris-Foulkes estimate   =     -90.77117163 Ry
     estimated scf accuracy    <       0.00163138 Ry

     iteration #  5     ecut=    40.00 Ry     beta= 0.50
     Davidson diagonalization with overlap
     ethr =  5.10E-06,  avg # of iterations =  1.0

     total cpu time spent up to now is       67.9 secs

     total energy              =     -90.77039481 Ry
     Harris-Foulkes estimate   =     -90.77068647 Ry
     estimated scf accuracy    <       0.00049596 Ry

     iteration #  6     ecut=    40.00 Ry     beta= 0.50
     Davidson diagonalization with overlap
     ethr =  1.55E-06,  avg # of iterations =  3.1

     total cpu time spent up to now is       70.6 secs

     total energy              =     -90.77049733 Ry
     Harris-Foulkes estimate   =     -90.77050338 Ry
     estimated scf accuracy    <       0.00002975 Ry

     iteration #  7     ecut=    40.00 Ry     beta= 0.50
     Davidson diagonalization with overlap
     ethr =  9.30E-08,  avg # of iterations =  2.1

     total cpu time spent up to now is       72.6 secs

     total energy              =     -90.77049896 Ry
     Harris-Foulkes estimate   =     -90.77050197 Ry
     estimated scf accuracy    <       0.00000722 Ry

     iteration #  8     ecut=    40.00 Ry     beta= 0.50
     Davidson diagonalization with overlap
     ethr =  2.26E-08,  avg # of iterations =  1.9

     total cpu time spent up to now is       74.7 secs

     total energy              =     -90.77049909 Ry
     Harris-Foulkes estimate   =     -90.77049968 Ry
     estimated scf accuracy    <       0.00000103 Ry

     iteration #  9     ecut=    40.00 Ry     beta= 0.50
     Davidson diagonalization with overlap
     ethr =  3.21E-09,  avg # of iterations =  2.9

     total cpu time spent up to now is       77.4 secs

     total energy              =     -90.77049941 Ry
     Harris-Foulkes estimate   =     -90.77049957 Ry
     estimated scf accuracy    <       0.00000035 Ry

     iteration # 10     ecut=    40.00 Ry     beta= 0.50
     Davidson diagonalization with overlap
     ethr =  1.09E-09,  avg # of iterations =  2.0

     total cpu time spent up to now is       79.7 secs

     total energy              =     -90.77049947 Ry
     Harris-Foulkes estimate   =     -90.77049947 Ry
     estimated scf accuracy    <          6.3E-09 Ry

     iteration # 11     ecut=    40.00 Ry     beta= 0.50
     Davidson diagonalization with overlap
     ethr =  1.98E-11,  avg # of iterations =  3.2

     total cpu time spent up to now is       82.8 secs

     End of self-consistent calculation

          k = 0.0000 0.0000 0.0000 (  2053 PWs)   bands (ev):

   -12.9506 -11.8303 -11.1351  -7.6933  -7.3810  -2.9915  -1.9399  -0.0981
     0.3441   0.7324   0.7373   1.3299   1.5548   2.5018   4.4061   5.3556
     8.5811  10.7709  10.9308  12.5549

          k = 0.0547 0.0100 0.6171 (  2071 PWs)   bands (ev):

   -12.2240 -11.1959 -10.3842  -7.4015  -6.5957  -2.9972  -1.9562  -1.6316
    -0.9637   0.1352   0.6923   0.7032   1.0831   1.5024   4.7049   6.0422
     6.1717   8.0679  11.4915  11.9371

          k = 0.1094 0.0199 1.2341 (  2068 PWs)   bands (ev):

   -10.1218  -9.3396  -8.4094  -7.0953  -6.3959  -4.8128  -4.4381  -3.6933
    -2.5387  -1.5533  -1.0544   2.7014   2.9154   3.4223   4.1183   4.9774
     5.2671   6.5930   8.9769  10.6351

          k = 0.0605 0.6043 0.0102 (  2082 PWs)   bands (ev):

   -12.7266 -12.0252 -10.8065  -8.8451  -6.1973  -4.2117  -1.1814  -0.8369
    -0.6969   0.7233   0.9781   1.7023   2.3591   2.3643   4.3676   7.2564
     8.8323  10.3170  11.1073  13.1217

          k = 0.1152 0.6143 0.6272 (  2061 PWs)   bands (ev):

   -12.0371 -11.2353 -10.2954  -8.0004  -6.1209  -3.5403  -1.8112  -1.2823
    -0.8780  -0.2657  -0.0387   0.0562   0.5758   2.9751   5.0905   6.1714
     7.2528   7.9192  11.0200  12.9815

          k = 0.1699 0.6242 1.2443 (  2055 PWs)   bands (ev):

    -9.9947  -9.1674  -8.6078  -6.9815  -6.5054  -4.7404  -4.4961  -3.8512
    -2.6095  -1.4904  -1.0623   1.7056   2.3006   3.8485   4.1176   4.8251
     5.8979   6.7778   9.4193  10.9679

          k =-0.0489 0.5844-1.2240 (  2062 PWs)   bands (ev):

    -9.8982  -9.5186  -7.9655  -7.5926  -6.1993  -5.0132  -4.6710  -3.0676
    -2.8671  -1.5123  -1.2405   1.5714   2.5383   3.9151   4.0350   5.1699
     5.2479   7.2071   9.0710  11.3931

          k = 0.0058 0.5944-0.6069 (  2055 PWs)   bands (ev):

   -11.9888 -11.4206  -9.9819  -8.4299  -5.4357  -4.2270  -1.8090  -0.8399
    -0.7566  -0.5308  -0.0417   0.3271   0.3566   3.0913   4.4434   6.3658
     7.6709   8.1562  10.0672  13.5648

          k =-0.5079-0.0405-0.0418 (  2054 PWs)   bands (ev):

   -12.7794 -12.3397 -10.4508  -8.9126  -5.7806  -4.5479  -0.5796  -0.1473
     0.2853   0.6809   0.7667   1.1758   1.7656   2.3082   2.9540   7.6066
     9.0042   9.8094  10.1665  11.9657

          k =-0.4532-0.0306 0.5753 (  2068 PWs)   bands (ev):

   -12.0912 -11.5903  -9.8443  -8.2565  -5.4876  -4.0885  -1.8680  -0.9122
    -0.7620  -0.0213   0.3523   0.6476   1.0141   1.9518   3.5638   6.3879
     7.7713   7.8338   9.7052  12.5669

          k =-0.3985-0.0206 1.1924 (  2064 PWs)   bands (ev):

   -10.0725  -9.4878  -8.1814  -7.3098  -6.2685  -4.9153  -4.5343  -3.4383
    -2.5874  -1.5480  -1.1241   2.7412   2.7596   3.7221   4.0562   4.8908
     5.0910   6.8047   8.9183  10.8043

          k =-0.4474 0.5638-0.0316 (  2070 PWs)   bands (ev):

   -12.7017 -12.0295 -10.9462  -8.3422  -6.9955  -3.3869  -1.5867  -1.4840
     0.4507   0.7379   1.0897   1.2675   1.6317   2.4317   5.0011   7.2400
     8.6161  10.6393  11.1287  12.3127

          k =-0.3927 0.5738 0.5855 (  2056 PWs)   bands (ev):

   -11.9638 -11.4219 -10.1203  -8.0908  -6.0859  -3.5797  -1.8252  -1.2211
    -0.8165  -0.7922   0.0002   0.5417   1.2203   1.9443   5.1237   6.2023
     7.8733   8.0010  10.2487  13.3473

          k =-0.3380 0.5837 1.2026 (  2063 PWs)   bands (ev):

    -9.8867  -9.5058  -8.1033  -7.4520  -6.2278  -4.9988  -4.6393  -3.3336
    -2.6563  -1.5763  -1.1594   1.4656   2.7236   3.8165   3.9923   5.1114
     5.4045   7.0616   9.2722  11.3883

          k =-0.5568 0.5439-1.2657 (  2049 PWs)   bands (ev):

   -10.0024  -9.1366  -8.6729  -6.8358  -6.5978  -4.6192  -4.5519  -3.9581
    -2.6182  -1.4497  -1.0533   1.6346   2.5587   3.6484   4.1714   4.7500
     5.9925   6.5596   9.6698  10.8610

          k =-0.5021 0.5539-0.6487 (  2065 PWs)   bands (ev):

   -12.0269 -11.2238 -10.4063  -7.4366  -6.8395  -2.8868  -1.9899  -1.6224
    -0.9217  -0.6780   0.0987   0.7079   0.9146   2.0654   5.7325   6.0252
     6.9570   8.0611  11.3244  12.6067

     the Fermi energy is     6.1544 ev

!    total energy              =     -90.77049947 Ry
     Harris-Foulkes estimate   =     -90.77049947 Ry
     estimated scf accuracy    <          5.1E-10 Ry

     The total energy is the sum of the following terms:

     one-electron contribution =     -22.52295926 Ry
     hartree contribution      =      26.25369120 Ry
     xc contribution           =     -27.67478431 Ry
     ewald contribution        =     -66.82484901 Ry
     smearing contrib. (-TS)   =      -0.00159809 Ry

     convergence has been achieved in  11 iterations

     Forces acting on atoms (cartesian axes, Ry/au):

     atom    1 type  1   force =    -0.00875215    0.00398096   -0.00079308
     atom    2 type  1   force =     0.00940416   -0.01152783   -0.00091917
     atom    3 type  1   force =    -0.00031521   -0.00095241    0.00084662
     atom    4 type  1   force =    -0.00920431    0.01124689    0.00093010
     atom    5 type  1   force =     0.00041315    0.00075557   -0.00085226
     atom    6 type  1   force =     0.00830918   -0.00375998    0.00074315
     atom    7 type  1   force =     0.00620765    0.00086836    0.00199548
     atom    8 type  1   force =    -0.00606247   -0.00061156   -0.00195083

     Total force =     0.026428     Total SCF correction =     0.000029


     Computing stress (Cartesian axis) and pressure

          total   stress  (Ry/bohr**3)                   (kbar)     P=        6.78
   0.00008399   0.00004023   0.00000418           12.36        5.92        0.61
   0.00004023   0.00016828   0.00001262            5.92       24.76        1.86
   0.00000418   0.00001262  -0.00011410            0.61        1.86      -16.78


     number of scf cycles    =   5
     number of bfgs steps    =   4

     enthalpy old            =     -90.7681651770 Ry
     enthalpy new            =     -90.7704652874 Ry

     CASE: enthalpy_new < enthalpy_old

     new trust radius        =       0.1282398312 bohr
     new conv_thr            =       0.0000000012 Ry

     new unit-cell volume =    519.69438 a.u.^3 (    77.01076 Ang^3 )
     density =      2.06999 g/cm^3

CELL_PARAMETERS (bohr)
  14.196054820  -1.249970992  -1.219520932
  -0.524791367   8.042775802  -0.058929265
  -0.375403856  -0.037963538   4.611183076

ATOMIC_POSITIONS (crystal)
C             0.2229395272        0.2750028731        0.1214621076
C             0.3688556768        0.1199187704        0.1942394401
C             0.0699317550        0.4198488587        1.0449397994
C             0.4504947019        0.0261724897        0.7351428306
C             0.7490082741        0.7251253355        0.8841800038
C             0.5962847970        0.8708087695        0.8078607674
C             0.8309140599        0.6456809745        0.4253994096
C            -0.0121667919        0.4987999287        0.5035996415



     Writing output data file ./pp.save/
     NEW-OLD atomic charge density approx. for the potential
     extrapolated charge   33.03652, renormalised to   32.00000

     total cpu time spent up to now is       83.0 secs

     Self-consistent Calculation

     iteration #  1     ecut=    40.00 Ry     beta= 0.50
     Davidson diagonalization with overlap
     ethr =  1.00E-06,  avg # of iterations = 10.0

     total cpu time spent up to now is       90.8 secs

     total energy              =     -90.74702478 Ry
     Harris-Foulkes estimate   =     -90.11384625 Ry
     estimated scf accuracy    <       0.01237729 Ry

     iteration #  2     ecut=    40.00 Ry     beta= 0.50
     Davidson diagonalization with overlap
     ethr =  3.87E-05,  avg # of iterations =  4.7

     total cpu time spent up to now is       95.3 secs

     total energy              =     -90.77358541 Ry
     Harris-Foulkes estimate   =     -90.77903701 Ry
     estimated scf accuracy    <       0.01698475 Ry

     iteration #  3     ecut=    40.00 Ry     beta= 0.50
     Davidson diagonalization with overlap
     ethr =  3.87E-05,  avg # of iterations =  1.4

     total cpu time spent up to now is       97.3 secs

     total energy              =     -90.77420740 Ry
     Harris-Foulkes estimate   =     -90.77511159 Ry
     estimated scf accuracy    <       0.00505696 Ry

     iteration #  4     ecut=    40.00 Ry     beta= 0.50
     Davidson diagonalization with overlap
     ethr =  1.58E-05,  avg # of iterations =  1.0

     total cpu time spent up to now is       99.1 secs

     total energy              =     -90.77305224 Ry
     Harris-Foulkes estimate   =     -90.77443259 Ry
     estimated scf accuracy    <       0.00333671 Ry

     iteration #  5     ecut=    40.00 Ry     beta= 0.50
     Davidson diagonalization with overlap
     ethr =  1.04E-05,  avg # of iterations =  2.1

     total cpu time spent up to now is      101.5 secs

     total energy              =     -90.77293686 Ry
     Harris-Foulkes estimate   =     -90.77326287 Ry
     estimated scf accuracy    <       0.00056748 Ry

     iteration #  6     ecut=    40.00 Ry     beta= 0.50
     Davidson diagonalization with overlap
     ethr =  1.77E-06,  avg # of iterations =  3.6

     total cpu time spent up to now is      105.3 secs

     total energy              =     -90.77305536 Ry
     Harris-Foulkes estimate   =     -90.77306879 Ry
     estimated scf accuracy    <       0.00006927 Ry

     iteration #  7     ecut=    40.00 Ry     beta= 0.50
     Davidson diagonalization with overlap
     ethr =  2.16E-07,  avg # of iterations =  1.4

     total cpu time spent up to now is      107.4 secs

     total energy              =     -90.77305940 Ry
     Harris-Foulkes estimate   =     -90.77306461 Ry
     estimated scf accuracy    <       0.00001309 Ry

     iteration #  8     ecut=    40.00 Ry     beta= 0.50
     Davidson diagonalization with overlap
     ethr =  4.09E-08,  avg # of iterations =  2.0

     total cpu time spent up to now is      110.0 secs

     total energy              =     -90.77305952 Ry
     Harris-Foulkes estimate   =     -90.77306068 Ry
     estimated scf accuracy    <       0.00000198 Ry

     iteration #  9     ecut=    40.00 Ry     beta= 0.50
     Davidson diagonalization with overlap
     ethr =  6.20E-09,  avg # of iterations =  2.7

     total cpu time spent up to now is      113.4 secs

     total energy              =     -90.77306021 Ry
     Harris-Foulkes estimate   =     -90.77306062 Ry
     estimated scf accuracy    <       0.00000112 Ry

     iteration # 10     ecut=    40.00 Ry     beta= 0.50
     Davidson diagonalization with overlap
     ethr =  3.49E-09,  avg # of iterations =  1.2

     total cpu time spent up to now is      115.5 secs

     total energy              =     -90.77306024 Ry
     Harris-Foulkes estimate   =     -90.77306030 Ry
     estimated scf accuracy    <       0.00000015 Ry

     iteration # 11     ecut=    40.00 Ry     beta= 0.50
     Davidson diagonalization with overlap
     ethr =  4.59E-10,  avg # of iterations =  2.9

     total cpu time spent up to now is      119.0 secs

     total energy              =     -90.77306027 Ry
     Harris-Foulkes estimate   =     -90.77306027 Ry
     estimated scf accuracy    <          4.1E-09 Ry

     iteration # 12     ecut=    40.00 Ry     beta= 0.50
     Davidson diagonalization with overlap
     ethr =  1.27E-11,  avg # of iterations =  2.1

     total cpu time spent up to now is      122.1 secs

     End of self-consistent calculation

          k = 0.0000 0.0000 0.0000 (  2053 PWs)   bands (ev):

   -13.2534 -12.1833 -11.4587  -8.0551  -7.7281  -3.3225  -2.2723  -0.5083
    -0.0680   0.3952   0.4058   0.9973   1.1799   2.1419   4.1707   5.1108
     8.2396  10.3481  10.4104  12.1704

          k = 0.0537 0.0080 0.6168 (  2071 PWs)   bands (ev):

   -12.5289 -11.5434 -10.7142  -7.7580  -6.9427  -3.3307  -2.2942  -1.9594
    -1.3297  -0.2221   0.2753   0.3579   0.6861   1.1822   4.4612   5.7369
     5.8681   7.7068  11.1498  11.3554

          k = 0.1074 0.0160 1.2335 (  2068 PWs)   bands (ev):

   -10.4325  -9.6769  -8.7466  -7.4312  -6.7408  -5.1505  -4.7980  -4.0480
    -2.8832  -1.8845  -1.3934   2.2580   2.5413   3.1107   3.7677   4.6169
     4.9734   6.2768   8.6733  10.3046

          k = 0.0526 0.5886 0.0091 (  2082 PWs)   bands (ev):

   -13.0586 -12.3970 -11.1177  -9.1654  -6.5307  -4.5352  -1.4124  -1.1734
    -1.0198   0.3789   0.6353   1.3181   1.9077   2.0101   3.9793   6.9050
     8.4969   9.9687  10.6648  12.6302

          k = 0.1063 0.5966 0.6259 (  2061 PWs)   bands (ev):

   -12.3739 -11.6054 -10.6059  -8.3208  -6.4522  -3.8652  -2.1547  -1.6201
    -1.2504  -0.5684  -0.2993  -0.2680   0.2402   2.4986   4.7200   5.8344
     6.8935   7.5638  10.6044  12.6531

          k = 0.1600 0.6047 1.2427 (  2055 PWs)   bands (ev):

   -10.3368  -9.5309  -8.9229  -7.3224  -6.8369  -5.0789  -4.8330  -4.2036
    -2.9372  -1.8317  -1.3920   1.4164   2.0533   3.4692   3.7786   4.4844
     5.5066   6.3877   9.0637  10.5765

          k =-0.0548 0.5726-1.2244 (  2062 PWs)   bands (ev):

   -10.2315  -9.8759  -8.2976  -7.9264  -6.5382  -5.3460  -5.0197  -3.4034
    -3.2111  -1.8446  -1.5725   1.3342   2.1761   3.5896   3.7246   4.8122
     4.8506   6.8458   8.7030  11.0160

          k =-0.0011 0.5806-0.6076 (  2055 PWs)   bands (ev):

   -12.3191 -11.7890 -10.3006  -8.7513  -5.7651  -4.5569  -2.1553  -1.1785
    -1.1266  -0.7518  -0.3822  -0.0145  -0.0073   2.6893   4.0532   6.0304
     7.3246   7.8036   9.6571  13.0194

          k =-0.5037-0.0332-0.0413 (  2054 PWs)   bands (ev):

   -13.0927 -12.6577 -10.8095  -9.2612  -6.1161  -4.9010  -0.8955  -0.5632
    -0.1673   0.3441   0.4197   0.9193   1.3752   1.9647   2.7069   7.3085
     8.6571   9.5339   9.8130  11.3507

          k =-0.4500-0.0251 0.5755 (  2068 PWs)   bands (ev):

   -12.4036 -11.9131 -10.1998  -8.6046  -5.8267  -4.4351  -2.1998  -1.2423
    -1.1341  -0.3676   0.0144   0.2364   0.5636   1.6872   3.3082   6.0390
     7.4118   7.5432   9.3976  11.9669

          k =-0.3963-0.0171 1.1922 (  2064 PWs)   bands (ev):

   -10.3848  -9.8192  -8.5244  -7.6467  -6.6136  -5.2543  -4.8886  -3.7925
    -2.9314  -1.8903  -1.4548   2.2985   2.3859   3.4064   3.7044   4.5971
     4.7350   6.4979   8.5931  10.4784

          k =-0.4511 0.5554-0.0322 (  2070 PWs)   bands (ev):

   -13.0510 -12.3611 -11.2889  -8.6610  -7.3082  -3.7337  -1.8372  -1.8070
     0.1091   0.3961   0.7381   0.9057   1.2450   2.0825   4.5795   6.7992
     8.2855  10.2817  10.8282  11.7298

          k =-0.3974 0.5635 0.5846 (  2056 PWs)   bands (ev):

   -12.3118 -11.7596 -10.4606  -8.4074  -6.4004  -3.9235  -2.1668  -1.5516
    -1.1968  -1.0276  -0.3389   0.2035   0.7980   1.6564   4.6936   5.8666
     7.5057   7.5854   9.9363  12.7286

          k =-0.3437 0.5715 1.2014 (  2063 PWs)   bands (ev):

   -10.2307  -9.8518  -8.4429  -7.7775  -6.5717  -5.3277  -4.9837  -3.6700
    -3.0044  -1.9025  -1.4972   1.2281   2.3633   3.5161   3.6494   4.7520
     5.0113   6.7070   8.8882  10.9773

          k =-0.5585 0.5394-1.2657 (  2049 PWs)   bands (ev):

   -10.3457  -9.4856  -9.0015  -7.1722  -6.9402  -4.9510  -4.8831  -4.3158
    -2.9487  -1.7868  -1.3859   1.3473   2.3118   3.2589   3.8324   4.4078
     5.6242   6.1745   9.2953  10.4640

          k =-0.5048 0.5474-0.6489 (  2065 PWs)   bands (ev):

   -12.3740 -11.5590 -10.7460  -7.7610  -7.1553  -3.2249  -2.3260  -1.9607
    -1.3026  -0.9414  -0.2484   0.3773   0.6447   1.6224   5.3356   5.6919
     6.5512   7.7060  11.0068  12.2044

     the Fermi energy is     5.8211 ev

!    total energy              =     -90.77306027 Ry
     Harris-Foulkes estimate   =     -90.77306027 Ry
     estimated scf accuracy    <          3.8E-10 Ry

     The total energy is the sum of the following terms:

     one-electron contribution =     -27.12364762 Ry
     hartree contribution      =      28.13936813 Ry
     xc contribution           =     -27.65375260 Ry
     ewald contribution        =     -64.13354030 Ry
     smearing contrib. (-TS)   =      -0.00148788 Ry

     convergence has been achieved in  12 iterations

     Forces acting on atoms (cartesian axes, Ry/au):

     atom    1 type  1   force =    -0.01137889    0.00413480   -0.00096254
     atom    2 type  1   force =     0.00136669   -0.00947784   -0.00084896
     atom    3 type  1   force =     0.00433490   -0.00024217    0.00021074
     atom    4 type  1   force =    -0.00155919    0.00951296    0.00085078
     atom    5 type  1   force =    -0.00476026    0.00013205   -0.00023988
     atom    6 type  1   force =     0.01177150   -0.00441066    0.00094109
     atom    7 type  1   force =     0.00525763   -0.00030831    0.00010283
     atom    8 type  1   force =    -0.00503239    0.00065918   -0.00005407

     Total force =     0.024241     Total SCF correction =     0.000044


     Computing stress (Cartesian axis) and pressure

          total   stress  (Ry/bohr**3)                   (kbar)     P=       -0.53
  -0.00000435   0.00006328  -0.00001047           -0.64        9.31       -1.54
   0.00006328   0.00009368   0.00001453            9.31       13.78        2.14
  -0.00001047   0.00001453  -0.00010010           -1.54        2.14      -14.72


     number of scf cycles    =   6
     number of bfgs steps    =   5

     enthalpy old            =     -90.7704652874 Ry
     enthalpy new            =     -90.7730249458 Ry

     CASE: enthalpy_new < enthalpy_old

     new trust radius        =       0.1894450101 bohr
     new conv_thr            =       0.0000000012 Ry

     new unit-cell volume =    542.92412 a.u.^3 (    80.45305 Ang^3 )
     density =      1.98143 g/cm^3

CELL_PARAMETERS (bohr)
  14.296054460  -1.019765271  -1.214967531
  -0.371238556   8.325878663  -0.037230841
  -0.377147037  -0.034209378   4.608457234

ATOMIC_POSITIONS (crystal)
C             0.2220463454        0.2736636330        0.1207399802
C             0.3686516948        0.1189680812        0.1940062445
C             0.0686083193        0.4154771664        1.0436397074
C             0.4506010237        0.0269539469        0.7352940519
C             0.7503525254        0.7296268154        0.8854989413
C             0.5971835468        0.8719970056        0.8085991503
C             0.8320994106        0.6493145434        0.4261441003
C            -0.0132808660        0.4953568082        0.5029018240



     Writing output data file ./pp.save/
     NEW-OLD atomic charge density approx. for the potential
     extrapolated charge   33.36915, renormalised to   32.00000

     total cpu time spent up to now is      122.2 secs

     Self-consistent Calculation

     iteration #  1     ecut=    40.00 Ry     beta= 0.50
     Davidson diagonalization with overlap
     c_bands:  1 eigenvalues not converged
     ethr =  1.00E-06,  avg # of iterations = 10.4

     total cpu time spent up to now is      132.5 secs

     total energy              =     -90.72424951 Ry
     Harris-Foulkes estimate   =     -89.64532805 Ry
     estimated scf accuracy    <       0.02396370 Ry

     iteration #  2     ecut=    40.00 Ry     beta= 0.50
     Davidson diagonalization with overlap
     ethr =  7.49E-05,  avg # of iterations =  4.4

     total cpu time spent up to now is      137.7 secs

     total energy              =     -90.77672910 Ry
     Harris-Foulkes estimate   =     -90.78774554 Ry
     estimated scf accuracy    <       0.03468116 Ry

     iteration #  3     ecut=    40.00 Ry     beta= 0.50
     Davidson diagonalization with overlap
     ethr =  7.49E-05,  avg # of iterations =  1.4

     total cpu time spent up to now is      140.2 secs

     total energy              =     -90.77775378 Ry
     Harris-Foulkes estimate   =     -90.77950653 Ry
     estimated scf accuracy    <       0.01000691 Ry

     iteration #  4     ecut=    40.00 Ry     beta= 0.50
     Davidson diagonalization with overlap
     ethr =  3.13E-05,  avg # of iterations =  1.1

     total cpu time spent up to now is      142.5 secs

     total energy              =     -90.77529420 Ry
     Harris-Foulkes estimate   =     -90.77814178 Ry
     estimated scf accuracy    <       0.00692285 Ry

     iteration #  5     ecut=    40.00 Ry     beta= 0.50
     Davidson diagonalization with overlap
     ethr =  2.16E-05,  avg # of iterations =  2.0

     total cpu time spent up to now is      145.3 secs

     total energy              =     -90.77505942 Ry
     Harris-Foulkes estimate   =     -90.77573578 Ry
     estimated scf accuracy    <       0.00115497 Ry

     iteration #  6     ecut=    40.00 Ry     beta= 0.50
     Davidson diagonalization with overlap
     ethr =  3.61E-06,  avg # of iterations =  3.9

     total cpu time spent up to now is      150.0 secs

     total energy              =     -90.77530496 Ry
     Harris-Foulkes estimate   =     -90.77534195 Ry
     estimated scf accuracy    <       0.00017499 Ry

     iteration #  7     ecut=    40.00 Ry     beta= 0.50
     Davidson diagonalization with overlap
     ethr =  5.47E-07,  avg # of iterations =  1.2

     total cpu time spent up to now is      152.4 secs

     total energy              =     -90.77531429 Ry
     Harris-Foulkes estimate   =     -90.77532550 Ry
     estimated scf accuracy    <       0.00002262 Ry

     iteration #  8     ecut=    40.00 Ry     beta= 0.50
     Davidson diagonalization with overlap
     ethr =  7.07E-08,  avg # of iterations =  2.0

     total cpu time spent up to now is      155.8 secs

     total energy              =     -90.77531920 Ry
     Harris-Foulkes estimate   =     -90.77531928 Ry
     estimated scf accuracy    <       0.00000070 Ry

     iteration #  9     ecut=    40.00 Ry     beta= 0.50
     Davidson diagonalization with overlap
     ethr =  2.19E-09,  avg # of iterations =  2.1

     total cpu time spent up to now is      159.4 secs

     total energy              =     -90.77531928 Ry
     Harris-Foulkes estimate   =     -90.77531941 Ry
     estimated scf accuracy    <       0.00000052 Ry

     iteration # 10     ecut=    40.00 Ry     beta= 0.50
     Davidson diagonalization with overlap
     ethr =  1.61E-09,  avg # of iterations =  1.0

     total cpu time spent up to now is      161.7 secs

     total energy              =     -90.77531926 Ry
     Harris-Foulkes estimate   =     -90.77531931 Ry
     estimated scf accuracy    <       0.00000013 Ry

     iteration # 11     ecut=    40.00 Ry     beta= 0.50
     Davidson diagonalization with overlap
     ethr =  4.02E-10,  avg # of iterations =  2.1

     total cpu time spent up to now is      165.3 secs

     total energy              =     -90.77531928 Ry
     Harris-Foulkes estimate   =     -90.77531928 Ry
     estimated scf accuracy    <          1.8E-09 Ry

     iteration # 12     ecut=    40.00 Ry     beta= 0.50
     Davidson diagonalization with overlap
     ethr =  5.76E-12,  avg # of iterations =  3.0

     total cpu time spent up to now is      169.8 secs

     End of self-consistent calculation

          k = 0.0000 0.0000 0.0000 (  2053 PWs)   bands (ev):

   -13.6826 -12.6407 -11.9391  -8.5148  -8.2324  -3.7904  -2.6992  -1.1070
    -0.5490  -0.0608  -0.0470   0.5609   0.7112   1.6821   3.8900   4.7676
     7.7969   9.6047   9.9590  11.7318

          k = 0.0528 0.0051 0.6170 (  2071 PWs)   bands (ev):

   -12.9594 -11.9991 -11.1944  -8.2344  -7.4220  -3.8037  -2.7270  -2.3974
    -1.7947  -0.6851  -0.3311  -0.0990   0.2053   0.7480   4.1511   5.3086
     5.5046   7.2521  10.6106  10.7286

          k = 0.1056 0.0102 1.2341 (  2068 PWs)   bands (ev):

   -10.8665 -10.1298  -9.2157  -7.9026  -7.1798  -5.6236  -5.2803  -4.5130
    -3.3389  -2.3430  -1.8571   1.6677   2.0338   2.7081   3.3209   4.1627
     4.5668   5.8811   8.2767   9.9283

          k = 0.0411 0.5671 0.0076 (  2082 PWs)   bands (ev):

   -13.5207 -12.8887 -11.5677  -9.6084  -6.9933  -4.9798  -1.7610  -1.6221
    -1.4397  -0.0718   0.1827   0.8475   1.3130   1.5546   3.4757   6.4645
     8.0720   9.5150  10.1205  11.6852

          k = 0.0939 0.5722 0.6246 (  2061 PWs)   bands (ev):

   -12.8406 -12.0893 -11.0600  -8.7566  -6.9185  -4.3095  -2.6098  -2.0768
    -1.7150  -0.9924  -0.7573  -0.5835  -0.2125   1.8718   4.2440   5.4068
     6.4309   7.1093  10.1088  12.2439

          k = 0.1467 0.5773 1.2417 (  2055 PWs)   bands (ev):

   -10.8073  -9.9982  -9.3861  -7.7773  -7.2814  -5.5456  -5.2951  -4.6624
    -3.3739  -2.3027  -1.8456   1.0113   1.7129   2.9494   3.3485   4.0479
     5.0150   5.8980   8.6161  10.1139

          k =-0.0645 0.5569-1.2265 (  2062 PWs)   bands (ev):

   -10.6937 -10.3497  -8.7678  -8.3753  -6.9814  -5.8116  -5.4896  -3.8492
    -3.6641  -2.3045  -2.0292   0.9948   1.6854   3.1590   3.3100   4.3191
     4.3866   6.3949   8.2382  10.5633

          k =-0.0117 0.5620-0.6095 (  2055 PWs)   bands (ev):

   -12.7783 -12.2778 -10.7548  -9.1965  -6.2195  -5.0119  -2.6098  -1.6366
    -1.5878  -1.0691  -0.8359  -0.4966  -0.4638   2.1527   3.5500   5.6038
     6.8811   7.3698   9.1453  12.1839

          k =-0.4988-0.0224-0.0410 (  2054 PWs)   bands (ev):

   -13.5336 -13.0940 -11.3079  -9.7391  -6.5802  -5.3735  -1.3356  -1.1187
    -0.7646  -0.0989  -0.0387   0.5856   0.9030   1.5095   2.3826   6.9359
     8.2271   9.1730   9.3464  10.5613

          k =-0.4460-0.0173 0.5761 (  2068 PWs)   bands (ev):

   -12.8429 -12.3522 -10.6961  -9.0773  -6.2975  -4.8996  -2.6404  -1.6950
    -1.5961  -0.8250  -0.4398  -0.3202  -0.0212   1.3295   2.9766   5.6004
     6.9497   7.1690   9.0111  11.1946

          k =-0.3932-0.0122 1.1931 (  2064 PWs)   bands (ev):

   -10.8227 -10.2622  -9.0117  -8.0938  -7.0694  -5.7235  -5.3676  -4.2593
    -3.3811  -2.3652  -1.9088   1.7061   1.8911   2.9766   3.2537   4.2130
     4.2972   6.0897   8.1799  10.1041

          k =-0.4578 0.5447-0.0334 (  2070 PWs)   bands (ev):

   -13.5333 -12.8040 -11.7769  -9.0990  -7.7498  -4.2098  -2.2588  -2.1665
    -0.3667  -0.0513   0.2520   0.4588   0.7672   1.6312   4.0508   6.2307
     7.8577   9.8283  10.4484  11.0051

          k =-0.4049 0.5498 0.5836 (  2056 PWs)   bands (ev):

   -12.7920 -12.2117 -10.9397  -8.8481  -6.8357  -4.4009  -2.6127  -1.9956
    -1.6750  -1.3552  -0.7883  -0.2524   0.2443   1.2591   4.1427   5.4360
     7.0053   7.0976   9.5489  11.9309

          k =-0.3521 0.5549 1.2007 (  2063 PWs)   bands (ev):

   -10.7042 -10.3138  -8.9087  -8.2340  -7.0144  -5.7913  -5.4476  -4.1163
    -3.4626  -2.3558  -1.9600   0.8949   1.8587   3.1236   3.2079   4.2994
     4.4923   6.2760   8.3927  10.4955

          k =-0.5634 0.5344-1.2675 (  2049 PWs)   bands (ev):

   -10.8171  -9.9356  -9.4786  -7.6448  -7.3754  -5.4145  -5.3398  -4.7755
    -3.3917  -2.2506  -1.8433   0.9491   1.9517   2.7493   3.4048   3.9676
     5.1359   5.7106   8.8138  10.0051

          k =-0.5106 0.5395-0.6505 (  2065 PWs)   bands (ev):

   -12.8527 -11.9999 -11.2357  -8.1894  -7.6141  -3.6966  -2.7682  -2.4073
    -1.7803  -1.3091  -0.6999  -0.0771   0.2779   1.0387   4.8491   5.2656
     6.0084   7.2547  10.6390  11.7075

     the Fermi energy is     5.3930 ev

!    total energy              =     -90.77531928 Ry
     Harris-Foulkes estimate   =     -90.77531928 Ry
     estimated scf accuracy    <          7.7E-10 Ry

[...]

   -11.0540 -10.2962  -9.6241  -8.0675  -7.5351  -5.8020  -5.5377  -4.9272
    -3.6253  -2.5717  -2.1010   0.6214   1.6865   2.7015   3.1026   3.7713
     4.8184   5.6845   8.2128   9.7584

          k =-0.1035 0.4738-1.2143 (  2062 PWs)   bands (ev):

   -10.9767 -10.6263  -9.0026  -8.6152  -7.2510  -6.0650  -5.7448  -4.1034
    -3.9301  -2.5911  -2.2765   0.8507   1.6063   2.8970   2.9449   3.8705
     4.0989   6.2169   8.0048  10.1148

          k =-0.0284 0.5018-0.5869 (  2055 PWs)   bands (ev):

   -13.0596 -12.5558 -10.9925  -9.4489  -6.4808  -5.2609  -2.8626  -1.8982
    -1.8628  -1.2570  -1.0741  -0.7532  -0.5948   1.7522   3.2155   5.3484
     6.6227   6.9840   8.8331  11.1773

          k =-0.5168-0.0202-0.0634 (  2054 PWs)   bands (ev):

   -13.7915 -13.3324 -11.5682 -10.0080  -6.8670  -5.6668  -1.5860  -1.4742
    -1.1839  -0.3382  -0.3119   0.3198   0.6328   1.2831   2.1413   6.9000
     7.9738   9.0772   9.1900  10.4067

          k =-0.4417 0.0078 0.5641 (  2068 PWs)   bands (ev):

   -13.1019 -12.5864 -10.9557  -9.3511  -6.5727  -5.1924  -2.8838  -1.9524
    -1.8574  -1.0757  -0.7124  -0.7004  -0.4332   1.1038   2.7659   5.3242
     6.6738   7.0605   8.9461  10.6699

          k =-0.3666 0.0357 1.1915 (  2064 PWs)   bands (ev):

   -11.0788 -10.4916  -9.2631  -8.3706  -7.3124  -5.9856  -5.6409  -4.5213
    -3.6603  -2.6582  -2.1597   1.3232   1.4680   2.7677   2.9748   3.9874
     4.0510   5.7365   8.0681   9.9672

          k =-0.4700 0.5096-0.0228 (  2070 PWs)   bands (ev):

   -13.8085 -13.0706 -12.0459  -9.3380  -8.0089  -4.4794  -2.5168  -2.3869
    -0.5765  -0.2999   0.0992   0.1636   0.4982   1.4047   3.5522   5.9372
     7.6165   9.5661  10.2651  10.3668

          k =-0.3950 0.5375 0.6047 (  2056 PWs)   bands (ev):

   -13.0614 -12.4688 -11.2206  -9.0967  -7.0938  -4.6557  -2.8849  -2.2513
    -1.9483  -1.6147  -1.0087  -0.5381  -0.0687   1.2459   3.7936   5.2037
     6.6481   6.8064   9.2835  11.5443

          k =-0.3199 0.5655 1.2321 (  2063 PWs)   bands (ev):

   -10.9703 -10.5594  -9.2013  -8.4931  -7.2770  -6.0266  -5.7229  -4.3693
    -3.7193  -2.6007  -2.2358   0.6639   1.4705   2.9412   3.1563   4.0421
     4.3046   5.9240   8.0315  10.2728

          k =-0.6202 0.4537-1.2777 (  2049 PWs)   bands (ev):

   -11.1078 -10.2032  -9.7162  -7.9023  -7.6181  -5.6701  -5.6042  -5.0328
    -3.6593  -2.5021  -2.1163   0.9184   1.6923   2.4236   3.1294   3.7152
     4.7677   5.3475   8.6946   9.7350

          k =-0.5451 0.4816-0.6503 (  2065 PWs)   bands (ev):

   -13.1370 -12.2701 -11.4876  -8.4229  -7.8725  -3.9667  -3.0292  -2.6584
    -2.0498  -1.4342  -0.9451  -0.3551   0.0686   0.7674   4.2868   5.0116
     5.7463   6.9939  10.4769  11.3957

     the Fermi energy is     5.1468 ev

!    total energy              =     -90.77744433 Ry
     Harris-Foulkes estimate   =     -90.77744433 Ry
     estimated scf accuracy    <          3.2E-11 Ry

     The total energy is the sum of the following terms:

     one-electron contribution =     -38.62638456 Ry
     hartree contribution      =      33.04401464 Ry
     xc contribution           =     -27.65360243 Ry
     ewald contribution        =     -57.54045093 Ry
     smearing contrib. (-TS)   =      -0.00102104 Ry

     convergence has been achieved in  11 iterations

     Forces acting on atoms (cartesian axes, Ry/au):

     atom    1 type  1   force =    -0.00128903    0.00201419    0.00086892
     atom    2 type  1   force =    -0.00093894    0.00052258    0.00018090
     atom    3 type  1   force =    -0.00099384    0.00038774    0.00213658
     atom    4 type  1   force =     0.00180402   -0.00104114    0.00022821
     atom    5 type  1   force =     0.00204967   -0.00110406   -0.00195916
     atom    6 type  1   force =    -0.00034921   -0.00092628   -0.00122918
     atom    7 type  1   force =     0.00120296   -0.00057419   -0.00247213
     atom    8 type  1   force =    -0.00148563    0.00072116    0.00224586

     Total force =     0.006720     Total SCF correction =     0.000011


     Computing stress (Cartesian axis) and pressure

          total   stress  (Ry/bohr**3)                   (kbar)     P=        0.44
   0.00000239   0.00000216  -0.00000808            0.35        0.32       -1.19
   0.00000216  -0.00000104  -0.00000075            0.32       -0.15       -0.11
  -0.00000808  -0.00000075   0.00000757           -1.19       -0.11        1.11


     number of scf cycles    =  29
     number of bfgs steps    =  28

     enthalpy old            =     -90.7773391878 Ry
     enthalpy new            =     -90.7774064303 Ry

     CASE: enthalpy_new < enthalpy_old

     new trust radius        =       0.0319254366 bohr
     new conv_thr            =            1.0E-10 Ry

     new unit-cell volume =    555.74266 a.u.^3 (    82.35256 Ang^3 )
     density =      1.93572 g/cm^3

CELL_PARAMETERS (bohr)
  13.862453738  -1.124723498  -1.660170536
  -0.312781702   8.957327428  -0.396459217
  -0.569089705  -0.329741160   4.574772823

ATOMIC_POSITIONS (crystal)
C             0.2162710265        0.2600774311        0.1160156701
C             0.3668122986        0.1142817600        0.1918058216
C             0.0665991255        0.4116137780        1.0405745369
C             0.4521690130        0.0309456142        0.7366778564
C             0.7524704082        0.7337588473        0.8888747213
C             0.6028107061        0.8852055016        0.8134082010
C             0.8334727822        0.6511593162        0.4295648456
C            -0.0143433601        0.4943157516        0.4999023472



     Writing output data file ./pp.save/
     NEW-OLD atomic charge density approx. for the potential
     extrapolated charge   31.89390, renormalised to   32.00000

     total cpu time spent up to now is     2207.3 secs

     Self-consistent Calculation

     iteration #  1     ecut=    40.00 Ry     beta= 0.50
     Davidson diagonalization with overlap
     ethr =  1.00E-06,  avg # of iterations =  5.5

     total cpu time spent up to now is     2237.8 secs

     total energy              =     -90.77716757 Ry
     Harris-Foulkes estimate   =     -90.87562598 Ry
     estimated scf accuracy    <       0.00031801 Ry

     iteration #  2     ecut=    40.00 Ry     beta= 0.50
     Davidson diagonalization with overlap
     ethr =  9.94E-07,  avg # of iterations =  3.3

     total cpu time spent up to now is     2257.6 secs

     total energy              =     -90.77748839 Ry
     Harris-Foulkes estimate   =     -90.77759085 Ry
     estimated scf accuracy    <       0.00028683 Ry

     iteration #  3     ecut=    40.00 Ry     beta= 0.50
     Davidson diagonalization with overlap
     ethr =  8.96E-07,  avg # of iterations =  1.6

     total cpu time spent up to now is     2269.7 secs

     total energy              =     -90.77751122 Ry
     Harris-Foulkes estimate   =     -90.77752830 Ry
     estimated scf accuracy    <       0.00005625 Ry

     iteration #  4     ecut=    40.00 Ry     beta= 0.50
     Davidson diagonalization with overlap
     ethr =  1.76E-07,  avg # of iterations =  1.5

     total cpu time spent up to now is     2281.6 secs

     total energy              =     -90.77750809 Ry
     Harris-Foulkes estimate   =     -90.77751810 Ry
     estimated scf accuracy    <       0.00002573 Ry

     iteration #  5     ecut=    40.00 Ry     beta= 0.50
     Davidson diagonalization with overlap
     ethr =  8.04E-08,  avg # of iterations =  2.0

     total cpu time spent up to now is     2295.3 secs

     total energy              =     -90.77751142 Ry
     Harris-Foulkes estimate   =     -90.77751170 Ry
     estimated scf accuracy    <       0.00000119 Ry

     iteration #  6     ecut=    40.00 Ry     beta= 0.50
     Davidson diagonalization with overlap
     ethr =  3.72E-09,  avg # of iterations =  2.9

     total cpu time spent up to now is     2313.6 secs

     total energy              =     -90.77751178 Ry
     Harris-Foulkes estimate   =     -90.77751194 Ry
     estimated scf accuracy    <       0.00000068 Ry

     iteration #  7     ecut=    40.00 Ry     beta= 0.50
     Davidson diagonalization with overlap
     ethr =  2.13E-09,  avg # of iterations =  1.1

     total cpu time spent up to now is     2324.6 secs

     total energy              =     -90.77751177 Ry
     Harris-Foulkes estimate   =     -90.77751186 Ry
     estimated scf accuracy    <       0.00000021 Ry

     iteration #  8     ecut=    40.00 Ry     beta= 0.50
     Davidson diagonalization with overlap
     ethr =  6.52E-10,  avg # of iterations =  2.0

     total cpu time spent up to now is     2340.1 secs

     total energy              =     -90.77751181 Ry
     Harris-Foulkes estimate   =     -90.77751182 Ry
     estimated scf accuracy    <       0.00000002 Ry

     iteration #  9     ecut=    40.00 Ry     beta= 0.50
     Davidson diagonalization with overlap
     ethr =  6.68E-11,  avg # of iterations =  2.0

     total cpu time spent up to now is     2354.1 secs

     total energy              =     -90.77751181 Ry
     Harris-Foulkes estimate   =     -90.77751181 Ry
     estimated scf accuracy    <          2.8E-09 Ry

     iteration # 10     ecut=    40.00 Ry     beta= 0.50
     Davidson diagonalization with overlap
     ethr =  8.65E-12,  avg # of iterations =  2.4

     total cpu time spent up to now is     2370.6 secs

     End of self-consistent calculation

          k = 0.0000 0.0000 0.0000 (  2053 PWs)   bands (ev):

   -13.9061 -12.8642 -12.1432  -8.7636  -8.4961  -4.0267  -2.9496  -1.4221
    -0.9224  -0.3686  -0.2586   0.3006   0.4957   1.4752   3.8677   4.6836
     7.5694   9.2540   9.7345  11.6680

          k = 0.0778 0.0306 0.6291 (  2071 PWs)   bands (ev):

   -13.1783 -12.2272 -11.3987  -8.4698  -7.6945  -4.0339  -2.9678  -2.6171
    -2.0189  -0.8986  -0.6871  -0.3421  -0.1003   0.4110   4.0151   5.0761
     5.5192   7.0147  10.4044  10.5913

          k = 0.1556 0.0611 1.2582 (  2068 PWs)   bands (ev):

   -11.0743 -10.3613  -9.4259  -8.1058  -7.4332  -5.8423  -5.5160  -4.7598
    -3.5856  -2.5656  -2.1096   1.2165   1.9331   2.2961   3.0642   3.9101
     4.3023   5.8175   8.1330   9.6763

          k = 0.0482 0.5290 0.0441 (  2082 PWs)   bands (ev):

   -13.7642 -13.1351 -11.7789  -9.8470  -7.2161  -5.1908  -1.9371  -1.8693
    -1.5871  -0.2942  -0.0728   0.6201   0.9907   1.3581   3.3472   6.0848
     7.8628   9.2919   9.6371  11.0244

          k = 0.1260 0.5596 0.6732 (  2061 PWs)   bands (ev):

   -13.0685 -12.3452 -11.2731  -9.0023  -7.1387  -4.5219  -2.8464  -2.3109
    -1.9468  -1.3048  -0.9611  -0.6467  -0.4571   1.5941   4.1942   5.1991
     6.1201   6.8679   9.6210  12.0808

          k = 0.2038 0.5901 1.3023 (  2055 PWs)   bands (ev):

   -11.0215 -10.2639  -9.5943  -8.0387  -7.5018  -5.7664  -5.5086  -4.8987
    -3.5876  -2.5348  -2.0763   0.6328   1.7391   2.7408   3.1364   3.8033
     4.8552   5.7208   8.2307   9.7778

          k =-0.1074 0.4679-1.2140 (  2062 PWs)   bands (ev):

   -10.9493 -10.5930  -8.9693  -8.5808  -7.2210  -6.0337  -5.7114  -4.0800
    -3.8889  -2.5588  -2.2472   0.8845   1.6599   2.9273   2.9612   3.8825
     4.1327   6.2610   8.0456  10.1294

          k =-0.0296 0.4984-0.5850 (  2055 PWs)   bands (ev):

   -13.0324 -12.5212 -10.9604  -9.4171  -6.4487  -5.2291  -2.8327  -1.8558
    -1.8382  -1.2323  -1.0427  -0.7209  -0.5444   1.7738   3.2441   5.3803
     6.6580   7.0072   8.8709  11.1905

          k =-0.5188-0.0210-0.0661 (  2054 PWs)   bands (ev):

   -13.7626 -13.2998 -11.5357  -9.9743  -6.8374  -5.6365  -1.5549  -1.4501
    -1.1432  -0.3077  -0.2793   0.3428   0.6710   1.3137   2.1601   6.9533
     8.0071   9.1093   9.2397  10.4914

          k =-0.4410 0.0095 0.5630 (  2068 PWs)   bands (ev):

   -13.0734 -12.5521 -10.9239  -9.3181  -6.5422  -5.1618  -2.8536  -1.9260
    -1.8146  -1.0444  -0.6860  -0.6815  -0.3882   1.1305   2.7934   5.3552
     6.7100   7.0963   8.9947  10.7040

          k =-0.3632 0.0401 1.1921 (  2064 PWs)   bands (ev):

   -11.0501 -10.4550  -9.2323  -8.3404  -7.2778  -5.9517  -5.6130  -4.4954
    -3.6206  -2.6229  -2.1347   1.3323   1.5072   2.8039   3.0040   4.0196
     4.0915   5.7559   8.1139  10.0254

          k =-0.4706 0.5080-0.0219 (  2070 PWs)   bands (ev):

   -13.7781 -13.0385 -12.0154  -9.3050  -7.9788  -4.4473  -2.4846  -2.3637
    -0.5324  -0.2709   0.1355   0.1950   0.5360   1.4371   3.5737   5.9734
     7.6507   9.5989  10.3071  10.3988

          k =-0.3928 0.5385 0.6072 (  2056 PWs)   bands (ev):

   -13.0308 -12.4351 -11.1912  -9.0662  -7.0617  -4.6230  -2.8557  -2.2188
    -1.9143  -1.5954  -0.9757  -0.5057  -0.0351   1.2976   3.8324   5.2386
     6.6726   6.8372   9.3064  11.6109

          k =-0.3150 0.5691 1.2362 (  2063 PWs)   bands (ev):

   -10.9404 -10.5237  -9.1720  -8.4637  -7.2454  -5.9969  -5.6888  -4.3278
    -3.6951  -2.5745  -2.1977   0.6918   1.4880   2.9761   3.2143   4.0717
     4.3552   5.9418   8.0495  10.2994

          k =-0.6263 0.4468-1.2801 (  2049 PWs)   bands (ev):

   -11.0801 -10.1685  -9.6837  -7.8724  -7.5833  -5.6448  -5.5698  -4.9953
    -3.6299  -2.4710  -2.0840   0.9732   1.7099   2.4505   3.1601   3.7488
     4.7908   5.3755   8.7413   9.7704

          k =-0.5484 0.4774-0.6510 (  2065 PWs)   bands (ev):

   -13.1081 -12.2373 -11.4561  -8.3876  -7.8434  -3.9350  -3.0000  -2.6275
    -2.0125  -1.3959  -0.9127  -0.3246   0.0945   0.8045   4.2994   5.0420
     5.7879   7.0275  10.5202  11.4324

     the Fermi energy is     5.1795 ev

!    total energy              =     -90.77751181 Ry
     Harris-Foulkes estimate   =     -90.77751181 Ry
     estimated scf accuracy    <          5.5E-11 Ry

     The total energy is the sum of the following terms:

     one-electron contribution =     -38.08010258 Ry
     hartree contribution      =      32.80917131 Ry
     xc contribution           =     -27.65503675 Ry
     ewald contribution        =     -57.85054237 Ry
     smearing contrib. (-TS)   =      -0.00100142 Ry

     convergence has been achieved in  10 iterations

     Forces acting on atoms (cartesian axes, Ry/au):

     atom    1 type  1   force =    -0.00049764    0.00111024   -0.00057927
     atom    2 type  1   force =    -0.00073447    0.00036711    0.00012184
     atom    3 type  1   force =    -0.00112726    0.00049650    0.00237629
     atom    4 type  1   force =     0.00133762   -0.00080681    0.00039621
     atom    5 type  1   force =     0.00167091   -0.00063889   -0.00249263
     atom    6 type  1   force =    -0.00051810   -0.00042871    0.00008423
     atom    7 type  1   force =     0.00110047   -0.00065361   -0.00232074
     atom    8 type  1   force =    -0.00123152    0.00055416    0.00241407

     Total force =     0.006067     Total SCF correction =     0.000008


     Computing stress (Cartesian axis) and pressure

          total   stress  (Ry/bohr**3)                   (kbar)     P=        0.70
   0.00000427   0.00000071  -0.00000502            0.63        0.10       -0.74
   0.00000071  -0.00000074  -0.00000159            0.10       -0.11       -0.23
  -0.00000502  -0.00000159   0.00001070           -0.74       -0.23        1.57


     number of scf cycles    =  30
     number of bfgs steps    =  29

     enthalpy old            =     -90.7774064303 Ry
     enthalpy new            =     -90.7774740356 Ry

     CASE: enthalpy_new < enthalpy_old

     new trust radius        =       0.0189000980 bohr
     new conv_thr            =            1.0E-10 Ry

     new unit-cell volume =    554.89210 a.u.^3 (    82.22652 Ang^3 )
     density =      1.93869 g/cm^3

CELL_PARAMETERS (bohr)
  13.847380937  -1.132942296  -1.686805116
  -0.316154355   8.965609935  -0.414661534
  -0.580146219  -0.344376109   4.572987282

ATOMIC_POSITIONS (crystal)
C             0.2169850997        0.2619017118        0.1183205612
C             0.3669686957        0.1147403997        0.1920907896
C             0.0669094919        0.4125881249        1.0421275804
C             0.4521114813        0.0306175930        0.7365383637
C             0.7521316917        0.7327276282        0.8871982557
C             0.6020797402        0.8834437472        0.8111340249
C             0.8332850501        0.6505806600        0.4284942389
C            -0.0142092505        0.4947581353        0.5009201857



     Writing output data file ./pp.save/
     NEW-OLD atomic charge density approx. for the potential
     extrapolated charge   31.95095, renormalised to   32.00000

     total cpu time spent up to now is     2371.1 secs

     Self-consistent Calculation

     iteration #  1     ecut=    40.00 Ry     beta= 0.50
     Davidson diagonalization with overlap
     ethr =  1.00E-06,  avg # of iterations =  5.1

     total cpu time spent up to now is     2401.1 secs

     total energy              =     -90.77748011 Ry
     Harris-Foulkes estimate   =     -90.82257321 Ry
     estimated scf accuracy    <       0.00013659 Ry

     iteration #  2     ecut=    40.00 Ry     beta= 0.50
     Davidson diagonalization with overlap
     ethr =  4.27E-07,  avg # of iterations =  2.1

     total cpu time spent up to now is     2416.9 secs

     total energy              =     -90.77755504 Ry
     Harris-Foulkes estimate   =     -90.77758264 Ry
     estimated scf accuracy    <       0.00007052 Ry

     iteration #  3     ecut=    40.00 Ry     beta= 0.50
     Davidson diagonalization with overlap
     ethr =  2.20E-07,  avg # of iterations =  2.0

     total cpu time spent up to now is     2431.3 secs

     total energy              =     -90.77756225 Ry
     Harris-Foulkes estimate   =     -90.77756907 Ry
     estimated scf accuracy    <       0.00001900 Ry

     iteration #  4     ecut=    40.00 Ry     beta= 0.50
     Davidson diagonalization with overlap
     ethr =  5.94E-08,  avg # of iterations =  2.1

     total cpu time spent up to now is     2445.8 secs

     total energy              =     -90.77756440 Ry
     Harris-Foulkes estimate   =     -90.77756628 Ry
     estimated scf accuracy    <       0.00000616 Ry

     iteration #  5     ecut=    40.00 Ry     beta= 0.50
     Davidson diagonalization with overlap
     ethr =  1.93E-08,  avg # of iterations =  2.0

     total cpu time spent up to now is     2460.1 secs

     total energy              =     -90.77756502 Ry
     Harris-Foulkes estimate   =     -90.77756573 Ry
     estimated scf accuracy    <       0.00000207 Ry

     iteration #  6     ecut=    40.00 Ry     beta= 0.50
     Davidson diagonalization with overlap
     ethr =  6.47E-09,  avg # of iterations =  1.9

     total cpu time spent up to now is     2473.8 secs

     total energy              =     -90.77756542 Ry
     Harris-Foulkes estimate   =     -90.77756561 Ry
     estimated scf accuracy    <       0.00000076 Ry

     iteration #  7     ecut=    40.00 Ry     beta= 0.50
     Davidson diagonalization with overlap
     ethr =  2.38E-09,  avg # of iterations =  1.1

     total cpu time spent up to now is     2485.1 secs

     total energy              =     -90.77756551 Ry
     Harris-Foulkes estimate   =     -90.77756552 Ry
     estimated scf accuracy    <       0.00000003 Ry

     iteration #  8     ecut=    40.00 Ry     beta= 0.50
     Davidson diagonalization with overlap
     ethr =  1.06E-10,  avg # of iterations =  2.7

     total cpu time spent up to now is     2503.2 secs

     total energy              =     -90.77756552 Ry
     Harris-Foulkes estimate   =     -90.77756552 Ry
     estimated scf accuracy    <          2.3E-09 Ry

     iteration #  9     ecut=    40.00 Ry     beta= 0.50
     Davidson diagonalization with overlap
     ethr =  7.13E-12,  avg # of iterations =  2.0

     total cpu time spent up to now is     2517.9 secs

     total energy              =     -90.77756552 Ry
     Harris-Foulkes estimate   =     -90.77756552 Ry
     estimated scf accuracy    <          2.0E-10 Ry

     iteration # 10     ecut=    40.00 Ry     beta= 0.50
     Davidson diagonalization with overlap
