
     Program PWSCF v.6.5 starts on  9Jul2022 at 22:41:26 

     This program is part of the open-source Quantum ESPRESSO suite
     for quantum simulation of materials; please cite
         "P. Giannozzi et al., J. Phys.:Condens. Matter 21 395502 (2009);
         "P. Giannozzi et al., J. Phys.:Condens. Matter 29 465901 (2017);
          URL http://www.quantum-espresso.org", 
     in publications or presentations arising from this work. More details at
     http://www.quantum-espresso.org/quote

     Parallel version (MPI), running on    96 processors

     MPI processes distributed on     2 nodes
     R & G space division:  proc/nbgrp/npool/nimage =      96
     Waiting for input...
     Reading input from standard input
     Message from routine read_cards :
     DEPRECATED: no units specified in CELL_PARAMETERS card

     Current dimensions of program PWSCF are:
     Max number of different atomic species (ntypx) = 10
     Max number of k-points (npk) =  40000
     Max angular momentum in pseudopotentials (lmaxx) =  3

     Subspace diagonalization in iterative solution of the eigenvalue problem:
     one sub-group per band group will be used
     scalapack distributed-memory algorithm (size of sub-group:  9*  9 procs)

 
     Parallelization info
     --------------------
     sticks:   dense  smooth     PW     G-vecs:    dense   smooth      PW
     Min          15      15      4                  190      190      32
     Max          16      16      5                  192      192      35
     Sum        1459    1459    461                18315    18315    3253
 


     bravais-lattice index     =            0
     lattice parameter (alat)  =      14.5228  a.u.
     unit-cell volume          =     534.3950 (a.u.)^3
     number of atoms/cell      =            8
     number of atomic types    =            1
     number of electrons       =        32.00
     number of Kohn-Sham states=           20
     kinetic-energy cutoff     =      40.0000  Ry
     charge density cutoff     =     160.0000  Ry
     convergence threshold     =      1.0E-06
     mixing beta               =       0.5000
     number of iterations used =            8  plain     mixing
     Exchange-correlation=  SLA  PW   PBE  PBE
                           (   1   4   3   4   0   0   0)
     nstep                     =          250


     celldm(1)=  14.522764  celldm(2)=   0.000000  celldm(3)=   0.000000
     celldm(4)=   0.000000  celldm(5)=   0.000000  celldm(6)=   0.000000

     crystal axes: (cart. coord. in units of alat)
               a(1) = (   0.999727   0.023363  -0.000117 )  
               a(2) = (   0.021566   0.543595   0.000096 )  
               a(3) = (   0.000131   0.000062   0.321337 )  

     reciprocal axes: (cart. coord. in units 2 pi/alat)
               b(1) = (  1.001201 -0.039721 -0.000400 )  
               b(2) = ( -0.043031  1.841313 -0.000338 )  
               b(3) = (  0.000378 -0.000567  3.111999 )  


     PseudoPot. # 1 for C  read from file:
     ./C.pbe-van_bm.upf
     MD5 check sum: 1a69bf6b8db32088f5b2163dbdb77a27
     Pseudo is Ultrasoft, Zval =  4.0
     Generated by new atomic code, or converted to UPF format
     Using radial grid of  721 points,  4 beta functions with: 
                l(1) =   0
                l(2) =   0
                l(3) =   1
                l(4) =   1
     Q(r) pseudized with  8 coefficients,  rinner =    0.800   0.800   0.800


     atomic species   valence    mass     pseudopotential
        C              4.00    12.00000     C ( 1.00)

     No symmetry found



   Cartesian axes

     site n.     atom                  positions (alat units)
         1           C   tau(   1) = (   0.0099800   0.4168251   0.0083919  )
         2           C   tau(   2) = (   0.0904720   0.3370558   0.1690302  )
         3           C   tau(   3) = (   0.4603793   0.1469869   0.3297127  )
         4           C   tau(   4) = (   0.0299557   0.1560702   0.1687627  )
         5           C   tau(   5) = (   0.4226543   0.2127696   0.1690647  )
         6           C   tau(   6) = (  -0.0138241   0.0773415   0.0081257  )
         7           C   tau(   7) = (   0.8419032   0.5229274   0.0085966  )
         8           C   tau(   8) = (   0.2886012   0.3459211   0.1691759  )

     number of k points=    12  Marzari-Vanderbilt smearing, width (Ry)=  0.0200
                       cart. coord. in units 2pi/alat
        k(    1) = (   0.0000000   0.0000000   0.0000000), wk =   0.1250000
        k(    2) = (   0.0000944  -0.0001417   0.7779997), wk =   0.2500000
        k(    3) = (  -0.0001888   0.0002834  -1.5559993), wk =   0.1250000
        k(    4) = (   0.0215155  -0.9206563   0.0001688), wk =   0.1250000
        k(    5) = (   0.0216099  -0.9207980   0.7781685), wk =   0.2500000
        k(    6) = (   0.0213267  -0.9203728  -1.5558305), wk =   0.1250000
        k(    7) = (  -0.5006006   0.0198604   0.0002000), wk =   0.1250000
        k(    8) = (  -0.5005062   0.0197187   0.7781996), wk =   0.2500000
        k(    9) = (  -0.5007894   0.0201438  -1.5557993), wk =   0.1250000
        k(   10) = (  -0.4790851  -0.9007959   0.0003688), wk =   0.1250000
        k(   11) = (  -0.4789907  -0.9009376   0.7783684), wk =   0.2500000
        k(   12) = (  -0.4792740  -0.9005125  -1.5556305), wk =   0.1250000

     Dense  grid:    18315 G-vectors     FFT dimensions: (  60,  32,  20)

     Estimated max dynamical RAM per process >       2.53 MB

     Estimated total dynamical RAM >     243.14 MB

     Initial potential from superposition of free atoms

     starting charge   31.99968, renormalised to   32.00000
     Starting wfcs are   32 randomized atomic wfcs

     total cpu time spent up to now is        0.6 secs

     Self-consistent Calculation

     iteration #  1     ecut=    40.00 Ry     beta= 0.50
     Davidson diagonalization with overlap
     ethr =  1.00E-02,  avg # of iterations =  2.0

     total cpu time spent up to now is        1.2 secs

     total energy              =     -90.24309771 Ry
     Harris-Foulkes estimate   =     -90.52671348 Ry
     estimated scf accuracy    <       0.59645869 Ry

     iteration #  2     ecut=    40.00 Ry     beta= 0.50
     Davidson diagonalization with overlap
     ethr =  1.86E-03,  avg # of iterations =  2.2

     total cpu time spent up to now is        1.8 secs

     total energy              =     -90.20120787 Ry
     Harris-Foulkes estimate   =     -90.35470783 Ry
     estimated scf accuracy    <       0.34718667 Ry

     iteration #  3     ecut=    40.00 Ry     beta= 0.50
     Davidson diagonalization with overlap
     ethr =  1.08E-03,  avg # of iterations =  2.5

     total cpu time spent up to now is        2.4 secs

     total energy              =     -90.20860520 Ry
     Harris-Foulkes estimate   =     -90.44404099 Ry
     estimated scf accuracy    <       1.18181426 Ry

     iteration #  4     ecut=    40.00 Ry     beta= 0.50
     Davidson diagonalization with overlap
     ethr =  1.08E-03,  avg # of iterations =  2.5

     total cpu time spent up to now is        2.9 secs

     total energy              =     -90.26635816 Ry
     Harris-Foulkes estimate   =     -90.33623535 Ry
     estimated scf accuracy    <       0.32300632 Ry

     iteration #  5     ecut=    40.00 Ry     beta= 0.50
     Davidson diagonalization with overlap
     ethr =  1.01E-03,  avg # of iterations =  1.0

     total cpu time spent up to now is        3.3 secs

     total energy              =     -90.30013032 Ry
     Harris-Foulkes estimate   =     -90.31684399 Ry
     estimated scf accuracy    <       0.09826412 Ry

     iteration #  6     ecut=    40.00 Ry     beta= 0.50
     Davidson diagonalization with overlap
     ethr =  3.07E-04,  avg # of iterations =  1.0

     total cpu time spent up to now is        3.7 secs

     total energy              =     -90.30765622 Ry
     Harris-Foulkes estimate   =     -90.30953841 Ry
     estimated scf accuracy    <       0.00868756 Ry

     iteration #  7     ecut=    40.00 Ry     beta= 0.50
     Davidson diagonalization with overlap
     ethr =  2.71E-05,  avg # of iterations =  3.4

     total cpu time spent up to now is        4.4 secs

     total energy              =     -90.30842985 Ry
     Harris-Foulkes estimate   =     -90.30872188 Ry
     estimated scf accuracy    <       0.00126399 Ry

     iteration #  8     ecut=    40.00 Ry     beta= 0.50
     Davidson diagonalization with overlap
     ethr =  3.95E-06,  avg # of iterations =  3.0

     total cpu time spent up to now is        5.0 secs

     total energy              =     -90.30862165 Ry
     Harris-Foulkes estimate   =     -90.30874181 Ry
     estimated scf accuracy    <       0.00100163 Ry

     iteration #  9     ecut=    40.00 Ry     beta= 0.50
     Davidson diagonalization with overlap
     ethr =  3.13E-06,  avg # of iterations =  1.0

     total cpu time spent up to now is        5.4 secs

     total energy              =     -90.30868412 Ry
     Harris-Foulkes estimate   =     -90.30869265 Ry
     estimated scf accuracy    <       0.00002877 Ry

     iteration # 10     ecut=    40.00 Ry     beta= 0.50
     Davidson diagonalization with overlap
     ethr =  8.99E-08,  avg # of iterations =  2.8

     total cpu time spent up to now is        6.1 secs

     total energy              =     -90.30868693 Ry
     Harris-Foulkes estimate   =     -90.30868913 Ry
     estimated scf accuracy    <       0.00001027 Ry

     iteration # 11     ecut=    40.00 Ry     beta= 0.50
     Davidson diagonalization with overlap
     ethr =  3.21E-08,  avg # of iterations =  2.1

     total cpu time spent up to now is        6.6 secs

     total energy              =     -90.30868828 Ry
     Harris-Foulkes estimate   =     -90.30868888 Ry
     estimated scf accuracy    <       0.00000141 Ry

     iteration # 12     ecut=    40.00 Ry     beta= 0.50
     Davidson diagonalization with overlap
     ethr =  4.40E-09,  avg # of iterations =  2.0

     total cpu time spent up to now is        7.2 secs

     End of self-consistent calculation

          k = 0.0000 0.0000 0.0000 (  2285 PWs)   bands (ev):

   -15.6918 -12.5191 -10.8557  -9.5184  -6.6037  -4.7547  -2.5038  -1.3484
    -1.0437  -0.7461   0.2686   1.0802   2.2662   2.5290   3.5715   6.0154
     7.8974   7.9419   9.7035  10.8311

          k = 0.0001-0.0001 0.7780 (  2273 PWs)   bands (ev):

   -14.6038 -11.5245 -10.0991  -8.6124  -5.8348  -4.9398  -4.0563  -3.5535
    -2.2079  -1.0639  -0.5526   0.9814   1.4330   2.8918   3.8851   4.8409
     5.9765   6.8221   7.2385  10.4146

          k =-0.0002 0.0003-1.5560 (  2274 PWs)   bands (ev):

   -12.1376 -10.9868  -8.8141  -7.9442  -6.7811  -6.4225  -5.5121  -4.3155
    -3.4243  -1.3802  -0.9196   1.5704   2.6025   3.1749   3.7424   4.2978
     5.0842   5.3792   6.2142   6.9520

          k = 0.0215-0.9207 0.0002 (  2302 PWs)   bands (ev):

   -14.6245 -13.7890 -12.1937  -8.4327  -6.0780  -3.8161  -2.2637  -1.0401
    -0.7581  -0.4988  -0.4859   0.6700   0.7469   2.1595   4.1504   6.0854
     6.6962   8.4888   9.8791  11.1779

          k = 0.0216-0.9208 0.7782 (  2282 PWs)   bands (ev):

   -13.6045 -12.7130 -11.1814  -7.7876  -5.6406  -4.2112  -3.7151  -3.4466
    -2.4951  -1.6121  -0.2523   0.7573   1.0150   2.8785   4.6662   4.9582
     5.3576   6.9339   7.4405  10.4188

          k = 0.0213-0.9204-1.5558 (  2280 PWs)   bands (ev):

   -11.7258 -10.3221  -8.6390  -8.5386  -8.3395  -7.8380  -4.6776  -4.5321
    -1.5919  -1.2798   0.5458   0.7967   2.4312   2.5693   3.6249   4.9958
     5.3799   5.5350   5.7639   8.0290

          k =-0.5006 0.0199 0.0002 (  2286 PWs)   bands (ev):

   -15.6906 -12.5360 -10.8257  -9.5193  -6.5967  -4.8941  -2.2992  -1.3478
    -0.9561  -0.7472   0.2328   1.1405   1.9797   2.2656   3.7864   6.2030
     7.8562   7.9524   9.6861  11.0568

          k =-0.5005 0.0197 0.7782 (  2279 PWs)   bands (ev):

   -14.6027 -11.5403 -10.0741  -8.6126  -5.8385  -4.9424  -4.1031  -3.5777
    -2.1440  -1.0658  -0.4310   0.9206   1.4027   2.7014   4.0540   5.1436
     5.5121   6.6930   7.4864  10.5225

          k =-0.5008 0.0201-1.5558 (  2292 PWs)   bands (ev):

   -12.1374 -10.9856  -8.8205  -7.9517  -6.7727  -6.4137  -5.5094  -4.3034
    -3.4365  -1.3930  -0.9054   1.3983   2.6928   3.0864   3.8549   4.8237
     5.1141   5.1194   5.9527   6.9342

          k =-0.4791-0.9008 0.0004 (  2310 PWs)   bands (ev):

   -14.6253 -13.7856 -12.1980  -8.4587  -5.9673  -3.8749  -2.3248  -1.0503
    -0.7581  -0.6332  -0.4869   0.6663   0.7475   2.4550   4.4769   5.5934
     6.6683   8.4743   9.9010  11.3774

          k =-0.4790-0.9009 0.7784 (  2278 PWs)   bands (ev):

   -13.6051 -12.7098 -11.1854  -7.8048  -5.5835  -4.2157  -3.7215  -3.4352
    -2.5202  -1.6462  -0.2571   0.5907   1.1507   2.9622   4.5611   4.9056
     5.6057   7.0700   7.2060  10.3465

          k =-0.4793-0.9005-1.5556 (  2286 PWs)   bands (ev):

   -11.7259 -10.3214  -8.6459  -8.5355  -8.3327  -7.8416  -4.6842  -4.5385
    -1.5784  -1.2741   0.5382   0.9424   2.2912   2.5738   3.6017   4.6888
     5.3072   5.4742   6.1912   8.0743

     the Fermi energy is     5.2724 ev

!    total energy              =     -90.30868847 Ry
     Harris-Foulkes estimate   =     -90.30868852 Ry
     estimated scf accuracy    <       0.00000011 Ry

     The total energy is the sum of the following terms:

     one-electron contribution =     -65.01490617 Ry
     hartree contribution      =      46.55796503 Ry
     xc contribution           =     -27.47142870 Ry
     ewald contribution        =     -44.38078100 Ry
     smearing contrib. (-TS)   =       0.00046236 Ry

     convergence has been achieved in  12 iterations

     Forces acting on atoms (cartesian axes, Ry/au):

     atom    1 type  1   force =     0.02577055    0.00458010    0.00002987
     atom    2 type  1   force =     0.00528500   -0.01202377   -0.00016660
     atom    3 type  1   force =     0.02110381   -0.01842835   -0.00006978
     atom    4 type  1   force =    -0.00413106    0.01115677    0.00046633
     atom    5 type  1   force =    -0.05657139    0.04537254    0.00021972
     atom    6 type  1   force =     0.00296151   -0.01370419    0.00056880
     atom    7 type  1   force =    -0.03174250    0.00394179   -0.00070557
     atom    8 type  1   force =     0.03732408   -0.02089490   -0.00034277

     Total force =     0.100468     Total SCF correction =     0.000426


     Computing stress (Cartesian axis) and pressure

          total   stress  (Ry/bohr**3)                   (kbar)     P=       35.43
  -0.00033179   0.00032508   0.00000170          -48.81       47.82        0.25
   0.00032508   0.00060290  -0.00000298           47.82       88.69       -0.44
   0.00000170  -0.00000298   0.00045139            0.25       -0.44       66.40


     BFGS Geometry Optimization

     number of scf cycles    =   1
     number of bfgs steps    =   0

     enthalpy new            =     -90.3086521429 Ry

     new trust radius        =       0.0791646048 bohr
     new conv_thr            =       0.0000010000 Ry

     new unit-cell volume =    543.98241 a.u.^3 (    80.60988 Ang^3 )
     density =      1.97757 g/cm^3

CELL_PARAMETERS (bohr)
  14.401101933   0.462407738  -0.001127567
   0.374760077   8.016022001   0.000840085
   0.002089847   0.000580816   4.719355047

ATOMIC_POSITIONS (crystal)
C            -0.0048039029        0.7675773432        0.0258898921
C             0.0775222392        0.6151348748        0.5258299071
C             0.4564673042        0.2483279775        1.0261423161
C             0.0234096770        0.2874547741        0.5252113844
C             0.4106188576        0.3794513105        0.5262118402
C            -0.0166743668        0.1412556850        0.0253604977
C             0.8199409064        0.9272358412        0.0266218275
C             0.2777702853        0.6217131937        0.5263163349



     Writing output data file ./pp.save/
     NEW-OLD atomic charge density approx. for the potential
     extrapolated charge   32.56398, renormalised to   32.00000

     total cpu time spent up to now is        7.4 secs

     Self-consistent Calculation

     iteration #  1     ecut=    40.00 Ry     beta= 0.50
     Davidson diagonalization with overlap
     ethr =  1.00E-06,  avg # of iterations =  9.0

     total cpu time spent up to now is        9.5 secs

     total energy              =     -90.05424732 Ry
     Harris-Foulkes estimate   =     -89.37830339 Ry
     estimated scf accuracy    <       0.33238266 Ry

     iteration #  2     ecut=    40.00 Ry     beta= 0.50
     Davidson diagonalization with overlap
     ethr =  1.04E-03,  avg # of iterations =  6.2

     total cpu time spent up to now is       10.7 secs

     total energy              =     -90.12011459 Ry
     Harris-Foulkes estimate   =     -90.93433090 Ry
     estimated scf accuracy    <       4.24304809 Ry

     iteration #  3     ecut=    40.00 Ry     beta= 0.50
     Davidson diagonalization with overlap
     ethr =  1.04E-03,  avg # of iterations =  3.9

     total cpu time spent up to now is       11.6 secs

     total energy              =     -90.33217749 Ry
     Harris-Foulkes estimate   =     -90.37058759 Ry
     estimated scf accuracy    <       0.49543484 Ry

     iteration #  4     ecut=    40.00 Ry     beta= 0.50
     Davidson diagonalization with overlap
     ethr =  1.04E-03,  avg # of iterations =  1.0

     total cpu time spent up to now is       12.0 secs

     total energy              =     -90.31582338 Ry
     Harris-Foulkes estimate   =     -90.34347899 Ry
     estimated scf accuracy    <       0.29150381 Ry

     iteration #  5     ecut=    40.00 Ry     beta= 0.50
     Davidson diagonalization with overlap
     ethr =  9.11E-04,  avg # of iterations =  1.0

     total cpu time spent up to now is       12.4 secs

     total energy              =     -90.31776891 Ry
     Harris-Foulkes estimate   =     -90.32416601 Ry
     estimated scf accuracy    <       0.05698106 Ry

     iteration #  6     ecut=    40.00 Ry     beta= 0.50
     Davidson diagonalization with overlap
     ethr =  1.78E-04,  avg # of iterations =  3.9

     total cpu time spent up to now is       13.2 secs

     total energy              =     -90.31945245 Ry
     Harris-Foulkes estimate   =     -90.32034652 Ry
     estimated scf accuracy    <       0.00890904 Ry

     iteration #  7     ecut=    40.00 Ry     beta= 0.50
     Davidson diagonalization with overlap
     ethr =  2.78E-05,  avg # of iterations =  3.2

     total cpu time spent up to now is       13.9 secs

     total energy              =     -90.31951182 Ry
     Harris-Foulkes estimate   =     -90.32011714 Ry
     estimated scf accuracy    <       0.00398462 Ry

     iteration #  8     ecut=    40.00 Ry     beta= 0.50
     Davidson diagonalization with overlap
     ethr =  1.25E-05,  avg # of iterations =  2.6

     total cpu time spent up to now is       14.6 secs

     total energy              =     -90.31978888 Ry
     Harris-Foulkes estimate   =     -90.31985362 Ry
     estimated scf accuracy    <       0.00019673 Ry

     iteration #  9     ecut=    40.00 Ry     beta= 0.50
     Davidson diagonalization with overlap
     ethr =  6.15E-07,  avg # of iterations =  3.2

     total cpu time spent up to now is       15.4 secs

     total energy              =     -90.31982452 Ry
     Harris-Foulkes estimate   =     -90.31985508 Ry
     estimated scf accuracy    <       0.00022192 Ry

     iteration # 10     ecut=    40.00 Ry     beta= 0.50
     Davidson diagonalization with overlap
     ethr =  6.15E-07,  avg # of iterations =  1.0

     total cpu time spent up to now is       15.8 secs

     total energy              =     -90.31983999 Ry
     Harris-Foulkes estimate   =     -90.31984088 Ry
     estimated scf accuracy    <       0.00000271 Ry

     iteration # 11     ecut=    40.00 Ry     beta= 0.50
     Davidson diagonalization with overlap
     ethr =  8.47E-09,  avg # of iterations =  3.2

     total cpu time spent up to now is       16.6 secs

     total energy              =     -90.31984077 Ry
     Harris-Foulkes estimate   =     -90.31984105 Ry
     estimated scf accuracy    <       0.00000143 Ry

     iteration # 12     ecut=    40.00 Ry     beta= 0.50
     Davidson diagonalization with overlap
     ethr =  4.47E-09,  avg # of iterations =  1.1

     total cpu time spent up to now is       17.1 secs

     End of self-consistent calculation

          k = 0.0000 0.0000 0.0000 (  2285 PWs)   bands (ev):

   -15.5413 -12.6498 -10.7592  -9.5817  -6.7120  -4.8665  -2.6414  -1.3449
    -1.0987  -0.4689   0.2850   1.0052   2.0361   2.4718   3.3919   5.6930
     7.5447   7.6584   9.3161  10.4961

          k = 0.0001-0.0001 0.7693 (  2273 PWs)   bands (ev):

   -14.4782 -11.6743 -10.0338  -8.6877  -6.0386  -4.9030  -4.1421  -3.3839
    -2.4031  -1.2265  -0.6183   0.9016   1.3531   2.7644   3.7518   4.4724
     5.8441   6.5593   7.0308  10.0787

          k =-0.0001 0.0002-1.5386 (  2274 PWs)   bands (ev):

   -12.0712 -11.0191  -9.0593  -7.8773  -6.6851  -6.4292  -5.6507  -4.4080
    -3.5347  -1.6809  -1.0409   1.4941   2.4044   3.0090   3.4624   4.0954
     4.9134   5.2628   6.1297   6.9524

          k = 0.0291-0.9072 0.0001 (  2302 PWs)   bands (ev):

   -14.5271 -13.7001 -12.2769  -8.4589  -6.1983  -3.9034  -2.4365  -1.1948
    -0.5145  -0.4988  -0.3827   0.4843   0.6446   2.0301   4.1049   5.7356
     6.4560   8.1543   9.5009  10.8829

          k = 0.0292-0.9073 0.7694 (  2282 PWs)   bands (ev):

   -13.5271 -12.6622 -11.2711  -7.8378  -5.8136  -4.3072  -3.6419  -3.3819
    -2.5603  -1.8085  -0.4141   0.6801   0.9662   2.6815   4.5107   4.7144
     5.2090   6.6595   7.2270  10.0632

          k = 0.0290-0.9071-1.5385 (  2280 PWs)   bands (ev):

   -11.6866 -10.4773  -8.8007  -8.4777  -8.2863  -7.7545  -4.7503  -4.5899
    -1.8950  -1.4131   0.3904   0.6791   2.2468   2.4264   3.3703   4.7827
     5.2758   5.3501   5.6690   7.9884

          k =-0.5050 0.0236 0.0002 (  2286 PWs)   bands (ev):

   -15.5396 -12.6677 -10.7251  -9.5829  -6.7117  -5.0060  -2.4498  -1.3442
    -0.9716  -0.4702   0.2621   1.0166   1.9242   2.0355   3.5918   5.8729
     7.5035   7.6746   9.2904  10.7686

          k =-0.5049 0.0235 0.7695 (  2279 PWs)   bands (ev):

   -14.4767 -11.6911 -10.0057  -8.6880  -6.0499  -4.9055  -4.1910  -3.4056
    -2.3354  -1.2272  -0.4892   0.8405   1.3029   2.5885   3.8842   4.8037
     5.3714   6.4433   7.2495  10.2007

          k =-0.5051 0.0238-1.5384 (  2292 PWs)   bands (ev):

   -12.0709 -11.0174  -9.0662  -7.8872  -6.6739  -6.4198  -5.6470  -4.3939
    -3.5492  -1.6931  -1.0236   1.2582   2.5591   2.8759   3.6271   4.6168
     4.9345   5.0273   5.8326   6.9363

          k =-0.4759-0.8836 0.0003 (  2310 PWs)   bands (ev):

   -14.5285 -13.6947 -12.2826  -8.4921  -6.0724  -3.9621  -2.4959  -1.2081
    -0.6634  -0.5132  -0.3855   0.4856   0.6296   2.3792   4.4371   5.2681
     6.4152   8.1332   9.5320  10.9706

          k =-0.4758-0.8837 0.7696 (  2278 PWs)   bands (ev):

   -13.5283 -12.6572 -11.2764  -7.8602  -5.7458  -4.3199  -3.6489  -3.3612
    -2.5901  -1.8362  -0.4207   0.4920   1.1113   2.8092   4.1868   4.8166
     5.4658   6.8563   6.9719   9.9860

          k =-0.4760-0.8834-1.5383 (  2286 PWs)   bands (ev):

   -11.6867 -10.4766  -8.8056  -8.4735  -8.2812  -7.7591  -4.7589  -4.5988
    -1.8777  -1.4094   0.3719   0.8779   2.0800   2.4418   3.3353   4.4244
     5.2088   5.2920   6.1336   8.0295

     the Fermi energy is     5.1037 ev

!    total energy              =     -90.31984039 Ry
     Harris-Foulkes estimate   =     -90.31984084 Ry
     estimated scf accuracy    <       0.00000055 Ry

     The total energy is the sum of the following terms:

     one-electron contribution =     -63.01206894 Ry
     hartree contribution      =      45.38433546 Ry
     xc contribution           =     -27.35666841 Ry
     ewald contribution        =     -45.33631978 Ry
     smearing contrib. (-TS)   =       0.00088128 Ry

     convergence has been achieved in  12 iterations

     Forces acting on atoms (cartesian axes, Ry/au):

     atom    1 type  1   force =     0.00832514    0.01314852    0.00000040
     atom    2 type  1   force =     0.00395823   -0.01336713   -0.00009655
     atom    3 type  1   force =     0.00683723    0.00918078    0.00004542
     atom    4 type  1   force =    -0.01372104   -0.00889792    0.00055538
     atom    5 type  1   force =     0.01485541   -0.02744937    0.00002068
     atom    6 type  1   force =     0.00985255    0.00502250    0.00029139
     atom    7 type  1   force =    -0.01260731    0.01070259   -0.00052952
     atom    8 type  1   force =    -0.01750020    0.01166003   -0.00028721

     Total force =     0.051458     Total SCF correction =     0.001572


     Computing stress (Cartesian axis) and pressure

          total   stress  (Ry/bohr**3)                   (kbar)     P=       -9.33
  -0.00021482   0.00003650   0.00000058          -31.60        5.37        0.09
   0.00003650   0.00028243  -0.00000165            5.37       41.55       -0.24
   0.00000058  -0.00000165  -0.00025790            0.09       -0.24      -37.94


     number of scf cycles    =   2
     number of bfgs steps    =   1

     enthalpy old            =     -90.3086521429 Ry
     enthalpy new            =     -90.3198034071 Ry

     CASE: enthalpy_new < enthalpy_old

     new trust radius        =       0.0503041713 bohr
     new conv_thr            =       0.0000002745 Ry

     new unit-cell volume =    543.48177 a.u.^3 (    80.53569 Ang^3 )
     density =      1.97939 g/cm^3

CELL_PARAMETERS (bohr)
  14.293832503   0.506784259  -0.000771427
   0.395228590   8.100644344   0.000372806
   0.002194382   0.000322170   4.701848380

ATOMIC_POSITIONS (crystal)
C            -0.0038478966        0.7693602939        0.0258911844
C             0.0779146909        0.6130539203        0.5258016575
C             0.4572694682        0.2489152989        1.0261485497
C             0.0224237100        0.2866848666        0.5253544888
C             0.4107274554        0.3773299848        0.5262287527
C            -0.0159597689        0.1414620061        0.0254523992
C             0.8185384512        0.9287675197        0.0264706995
C             0.2771848899        0.6225771097        0.5262362682



     Writing output data file ./pp.save/
     NEW-OLD atomic charge density approx. for the potential
     extrapolated charge   31.97052, renormalised to   32.00000

     total cpu time spent up to now is       17.1 secs

     Self-consistent Calculation

     iteration #  1     ecut=    40.00 Ry     beta= 0.50
     Davidson diagonalization with overlap
     ethr =  1.00E-06,  avg # of iterations =  7.7

     total cpu time spent up to now is       19.0 secs

     total energy              =     -90.32192830 Ry
     Harris-Foulkes estimate   =     -90.37376210 Ry
     estimated scf accuracy    <       0.00278612 Ry

     iteration #  2     ecut=    40.00 Ry     beta= 0.50
     Davidson diagonalization with overlap
     ethr =  8.71E-06,  avg # of iterations =  3.6

     total cpu time spent up to now is       19.9 secs

     total energy              =     -90.32043066 Ry
     Harris-Foulkes estimate   =     -90.32683321 Ry
     estimated scf accuracy    <       0.03510574 Ry

     iteration #  3     ecut=    40.00 Ry     beta= 0.50
     Davidson diagonalization with overlap
     ethr =  8.71E-06,  avg # of iterations =  3.0

     total cpu time spent up to now is       20.8 secs

     total energy              =     -90.32330845 Ry
     Harris-Foulkes estimate   =     -90.32359755 Ry
     estimated scf accuracy    <       0.00137422 Ry

     iteration #  4     ecut=    40.00 Ry     beta= 0.50
     Davidson diagonalization with overlap
     ethr =  4.29E-06,  avg # of iterations =  1.0

     total cpu time spent up to now is       21.3 secs

     total energy              =     -90.32339018 Ry
     Harris-Foulkes estimate   =     -90.32355040 Ry
     estimated scf accuracy    <       0.00091260 Ry

     iteration #  5     ecut=    40.00 Ry     beta= 0.50
     Davidson diagonalization with overlap
     ethr =  2.85E-06,  avg # of iterations =  1.0

     total cpu time spent up to now is       21.8 secs

     total energy              =     -90.32346725 Ry
     Harris-Foulkes estimate   =     -90.32351176 Ry
     estimated scf accuracy    <       0.00020540 Ry

     iteration #  6     ecut=    40.00 Ry     beta= 0.50
     Davidson diagonalization with overlap
     ethr =  6.42E-07,  avg # of iterations =  1.2

     total cpu time spent up to now is       22.3 secs

     total energy              =     -90.32349497 Ry
     Harris-Foulkes estimate   =     -90.32349774 Ry
     estimated scf accuracy    <       0.00002662 Ry

     iteration #  7     ecut=    40.00 Ry     beta= 0.50
     Davidson diagonalization with overlap
     ethr =  8.32E-08,  avg # of iterations =  2.0

     total cpu time spent up to now is       23.0 secs

     total energy              =     -90.32349602 Ry
     Harris-Foulkes estimate   =     -90.32349709 Ry
     estimated scf accuracy    <       0.00000667 Ry

     iteration #  8     ecut=    40.00 Ry     beta= 0.50
     Davidson diagonalization with overlap
     ethr =  2.09E-08,  avg # of iterations =  1.1

     total cpu time spent up to now is       23.5 secs

     End of self-consistent calculation

          k = 0.0000 0.0000 0.0000 (  2285 PWs)   bands (ev):

   -15.4713 -12.6323 -10.7250  -9.6960  -6.6997  -4.8256  -2.6002  -1.2485
    -1.1433  -0.4650   0.2757   1.0238   2.0352   2.5141   3.3847   5.7182
     7.4541   7.7459   9.4450  10.6030

          k = 0.0000-0.0000 0.7722 (  2273 PWs)   bands (ev):

   -14.3971 -11.6478  -9.9654  -8.8076  -6.0050  -4.8218  -4.1081  -3.3802
    -2.3484  -1.2535  -0.6303   0.9226   1.3689   2.7683   3.7541   4.5234
     5.8855   6.5506   7.0828  10.1624

          k =-0.0001 0.0001-1.5444 (  2274 PWs)   bands (ev):

   -11.9374 -10.9442  -8.9766  -7.8862  -6.6339  -6.5368  -5.7407  -4.4032
    -3.4804  -1.6085  -0.9934   1.5200   2.4587   3.0185   3.5092   4.0751
     4.9322   5.3052   6.1533   6.9299

          k = 0.0318-0.8979 0.0000 (  2302 PWs)   bands (ev):

   -14.4707 -13.6866 -12.2506  -8.5045  -6.1566  -3.8557  -2.4621  -1.2978
    -0.5089  -0.4566  -0.3840   0.6272   0.6292   1.9750   4.0979   5.7873
     6.4093   8.2184   9.6080  10.8693

          k = 0.0319-0.8980 0.7722 (  2282 PWs)   bands (ev):

   -13.4553 -12.6396 -11.2377  -7.8684  -5.7536  -4.2233  -3.6195  -3.3748
    -2.4940  -1.8522  -0.5155   0.7334   0.9876   2.6103   4.5717   4.7652
     5.2147   6.6411   7.2666  10.1484

          k = 0.0318-0.8979-1.5443 (  2280 PWs)   bands (ev):

   -11.5571 -10.4197  -8.7220  -8.4567  -8.2940  -7.7628  -4.7391  -4.5957
    -1.8095  -1.4615   0.3537   0.7111   2.3177   2.4434   3.4419   4.7631
     5.3165   5.3525   5.6747   7.9184

          k =-0.5089 0.0248 0.0002 (  2286 PWs)   bands (ev):

   -15.4693 -12.6523 -10.6869  -9.6972  -6.7011  -4.9776  -2.3863  -1.2478
    -1.0151  -0.4665   0.2636   1.0304   1.9287   2.0345   3.5799   5.9122
     7.4274   7.7630   9.4176  10.8810

          k =-0.5088 0.0248 0.7724 (  2279 PWs)   bands (ev):

   -14.3953 -11.6665  -9.9334  -8.8084  -6.0186  -4.8235  -4.1628  -3.4055
    -2.2692  -1.2555  -0.4922   0.8546   1.3245   2.5800   3.8744   4.8821
     5.3920   6.4392   7.3004  10.2913

          k =-0.5090 0.0249-1.5441 (  2292 PWs)   bands (ev):

   -11.9370 -10.9424  -8.9846  -7.8967  -6.6227  -6.5270  -5.7358  -4.3877
    -3.4947  -1.6229  -0.9745   1.2680   2.6214   2.8874   3.6766   4.6212
     4.9520   5.0682   5.8348   6.9117

          k =-0.4771-0.8731 0.0003 (  2310 PWs)   bands (ev):

   -14.4725 -13.6803 -12.2566  -8.5412  -6.0178  -3.9139  -2.5350  -1.3031
    -0.6418  -0.5074  -0.3870   0.5854   0.6285   2.3895   4.4134   5.3056
     6.3783   8.1960   9.6413  11.0145

          k =-0.4770-0.8732 0.7725 (  2278 PWs)   bands (ev):

   -13.4568 -12.6339 -11.2432  -7.8935  -5.6785  -4.2339  -3.6290  -3.3548
    -2.5209  -1.8882  -0.5186   0.5236   1.1305   2.7674   4.2453   4.8435
     5.4736   6.8639   7.0036  10.0650

          k =-0.4771-0.8730-1.5441 (  2286 PWs)   bands (ev):

   -11.5572 -10.4189  -8.7286  -8.4519  -8.2870  -7.7677  -4.7490  -4.6058
    -1.7882  -1.4591   0.3348   0.9216   2.1508   2.4616   3.4018   4.3690
     5.2474   5.2924   6.1679   7.9565

     the Fermi energy is     5.1318 ev

!    total energy              =     -90.32349645 Ry
     Harris-Foulkes estimate   =     -90.32349662 Ry
     estimated scf accuracy    <       0.00000026 Ry

     The total energy is the sum of the following terms:

     one-electron contribution =     -62.00729980 Ry
     hartree contribution      =      44.90767004 Ry
     xc contribution           =     -27.35523855 Ry
     ewald contribution        =     -45.86926424 Ry
     smearing contrib. (-TS)   =       0.00063609 Ry

     convergence has been achieved in   8 iterations

     Forces acting on atoms (cartesian axes, Ry/au):

     atom    1 type  1   force =    -0.00971490    0.00838684   -0.00003422
     atom    2 type  1   force =    -0.00792160   -0.00869899   -0.00001784
     atom    3 type  1   force =     0.01077433    0.00420542    0.00001841
     atom    4 type  1   force =    -0.00660366    0.00562775    0.00033865
     atom    5 type  1   force =     0.00787935   -0.01556447    0.00002709
     atom    6 type  1   force =     0.00508550   -0.00317405    0.00031432
     atom    7 type  1   force =    -0.00326737    0.00934041   -0.00038471
     atom    8 type  1   force =     0.00376835   -0.00012291   -0.00026169

     Total force =     0.031065     Total SCF correction =     0.001011


     Computing stress (Cartesian axis) and pressure

          total   stress  (Ry/bohr**3)                   (kbar)     P=       -9.81
  -0.00016712   0.00005672  -0.00000011          -24.58        8.34       -0.02
   0.00005672   0.00005415  -0.00000070            8.34        7.97       -0.10
  -0.00000011  -0.00000070  -0.00008705           -0.02       -0.10      -12.81


     number of scf cycles    =   3
     number of bfgs steps    =   2

     enthalpy old            =     -90.3198034071 Ry
     enthalpy new            =     -90.3234595091 Ry

     CASE: enthalpy_new < enthalpy_old

     new trust radius        =       0.0623199998 bohr
     new conv_thr            =       0.0000001556 Ry

     new unit-cell volume =    539.73507 a.u.^3 (    79.98049 Ang^3 )
     density =      1.99313 g/cm^3

CELL_PARAMETERS (bohr)
  14.119615131   0.582943752  -0.000578686
   0.431395361   8.178365932  -0.000176446
   0.002243634   0.000018442   4.684228381

ATOMIC_POSITIONS (crystal)
C            -0.0042461728        0.7721475852        0.0258789152
C             0.0772973182        0.6099417217        0.5257766641
C             0.4590936794        0.2497213883        1.0261563634
C             0.0211302991        0.2877680450        0.5255600322
C             0.4111145770        0.3738008942        0.5262556847
C            -0.0149895486        0.1405940057        0.0256296467
C             0.8171222216        0.9316374675        0.0262342622
C             0.2777286261        0.6225398923        0.5260924315



     Writing output data file ./pp.save/
     NEW-OLD atomic charge density approx. for the potential
     extrapolated charge   31.77787, renormalised to   32.00000

     total cpu time spent up to now is       23.6 secs

     Self-consistent Calculation

     iteration #  1     ecut=    40.00 Ry     beta= 0.50
     Davidson diagonalization with overlap
     ethr =  1.00E-06,  avg # of iterations =  8.5

     total cpu time spent up to now is       26.0 secs

     total energy              =     -90.28666677 Ry
     Harris-Foulkes estimate   =     -90.69457235 Ry
     estimated scf accuracy    <       0.04974527 Ry

     iteration #  2     ecut=    40.00 Ry     beta= 0.50
     Davidson diagonalization with overlap
     ethr =  1.55E-04,  avg # of iterations =  3.9

     total cpu time spent up to now is       27.2 secs

     total energy              =     -90.28826767 Ry
     Harris-Foulkes estimate   =     -90.44392039 Ry
     estimated scf accuracy    <       0.99053624 Ry

     iteration #  3     ecut=    40.00 Ry     beta= 0.50
     Davidson diagonalization with overlap
     ethr =  1.55E-04,  avg # of iterations =  3.2

     total cpu time spent up to now is       28.2 secs

     total energy              =     -90.32584959 Ry
     Harris-Foulkes estimate   =     -90.33213916 Ry
     estimated scf accuracy    <       0.06881816 Ry

     iteration #  4     ecut=    40.00 Ry     beta= 0.50
     Davidson diagonalization with overlap
     ethr =  1.55E-04,  avg # of iterations =  1.2

     total cpu time spent up to now is       28.8 secs

     total energy              =     -90.32554734 Ry
     Harris-Foulkes estimate   =     -90.32803532 Ry
     estimated scf accuracy    <       0.03222665 Ry

     iteration #  5     ecut=    40.00 Ry     beta= 0.50
     Davidson diagonalization with overlap
     ethr =  1.01E-04,  avg # of iterations =  1.0

     total cpu time spent up to now is       29.4 secs

     total energy              =     -90.32592659 Ry
     Harris-Foulkes estimate   =     -90.32653224 Ry
     estimated scf accuracy    <       0.00719101 Ry

     iteration #  6     ecut=    40.00 Ry     beta= 0.50
     Davidson diagonalization with overlap
     ethr =  2.25E-05,  avg # of iterations =  2.1

     total cpu time spent up to now is       30.2 secs

     total energy              =     -90.32581122 Ry
     Harris-Foulkes estimate   =     -90.32617258 Ry
     estimated scf accuracy    <       0.00329941 Ry

     iteration #  7     ecut=    40.00 Ry     beta= 0.50
     Davidson diagonalization with overlap
     ethr =  1.03E-05,  avg # of iterations =  1.9

     total cpu time spent up to now is       31.0 secs

     total energy              =     -90.32588145 Ry
     Harris-Foulkes estimate   =     -90.32596759 Ry
     estimated scf accuracy    <       0.00046168 Ry

     iteration #  8     ecut=    40.00 Ry     beta= 0.50
     Davidson diagonalization with overlap
     ethr =  1.44E-06,  avg # of iterations =  3.8

     total cpu time spent up to now is       32.2 secs

     total energy              =     -90.32597317 Ry
     Harris-Foulkes estimate   =     -90.32598770 Ry
     estimated scf accuracy    <       0.00009229 Ry

     iteration #  9     ecut=    40.00 Ry     beta= 0.50
     Davidson diagonalization with overlap
     ethr =  2.88E-07,  avg # of iterations =  1.5

     total cpu time spent up to now is       32.9 secs

     total energy              =     -90.32597693 Ry
     Harris-Foulkes estimate   =     -90.32597923 Ry
     estimated scf accuracy    <       0.00001444 Ry

     iteration # 10     ecut=    40.00 Ry     beta= 0.50
     Davidson diagonalization with overlap
     ethr =  4.51E-08,  avg # of iterations =  2.0

     total cpu time spent up to now is       33.8 secs

     total energy              =     -90.32597866 Ry
     Harris-Foulkes estimate   =     -90.32597883 Ry
     estimated scf accuracy    <       0.00000077 Ry

     iteration # 11     ecut=    40.00 Ry     beta= 0.50
     Davidson diagonalization with overlap
     ethr =  2.41E-09,  avg # of iterations =  2.8

     total cpu time spent up to now is       35.0 secs

     End of self-consistent calculation

          k = 0.0000 0.0000 0.0000 (  2285 PWs)   bands (ev):

   -15.3863 -12.6235 -10.6828  -9.7378  -6.6508  -4.7521  -2.4775  -1.1484
    -1.0518  -0.4901   0.3084   1.0220   2.2099   2.6281   3.4135   5.8255
     7.4099   7.8395   9.6270  10.7553

          k = 0.0000 0.0000 0.7751 (  2273 PWs)   bands (ev):

   -14.3049 -11.6330  -9.9089  -8.8355  -5.9374  -4.6608  -4.0517  -3.3798
    -2.2219  -1.1683  -0.5804   0.9364   1.4119   2.8398   3.8119   4.6068
     6.0052   6.6081   7.2195  10.3150

          k =-0.0001-0.0000-1.5502 (  2274 PWs)   bands (ev):

   -11.8468 -10.8292  -8.9071  -7.8941  -6.5624  -6.5067  -5.6991  -4.3442
    -3.4540  -1.4724  -0.9584   1.6219   2.5322   3.0875   3.6139   4.1234
     5.0212   5.4041   6.2629   6.9853

          k = 0.0367-0.8898-0.0000 (  2302 PWs)   bands (ev):

   -14.4237 -13.6282 -12.2251  -8.4837  -6.0809  -3.7920  -2.4422  -1.3919
    -0.5234  -0.3864  -0.2347   0.7021   0.8430   1.9712   4.1434   5.9103
     6.4612   8.3338   9.7838  10.9026

          k = 0.0368-0.8898 0.7751 (  2282 PWs)   bands (ev):

   -13.4009 -12.5730 -11.2058  -7.8381  -5.6632  -4.0977  -3.5840  -3.2936
    -2.3724  -1.8279  -0.5871   0.8135   1.0588   2.6028   4.6681   4.8817
     5.2880   6.6876   7.4218  10.3176

          k = 0.0367-0.8898-1.5502 (  2280 PWs)   bands (ev):

   -11.4915 -10.3338  -8.6457  -8.3625  -8.2140  -7.7581  -4.6683  -4.5177
    -1.6721  -1.4644   0.2877   0.8069   2.4265   2.4802   3.5622   4.8078
     5.4003   5.4463   5.7837   7.9443

          k =-0.5154 0.0272 0.0002 (  2286 PWs)   bands (ev):

   -15.3837 -12.6468 -10.6391  -9.7390  -6.6510  -4.9254  -2.2400  -1.0504
    -0.9945  -0.4923   0.2833   1.0377   1.9869   2.2092   3.6059   6.0242
     7.3984   7.8587   9.5960  11.0321

          k =-0.5154 0.0272 0.7753 (  2279 PWs)   bands (ev):

   -14.3026 -11.6546  -9.8723  -8.8363  -5.9517  -4.6632  -4.1110  -3.4126
    -2.1330  -1.1695  -0.4246   0.8713   1.3634   2.6295   3.9181   5.0100
     5.4645   6.5061   7.4405  10.4566

          k =-0.5155 0.0272-1.5499 (  2292 PWs)   bands (ev):

   -11.8463 -10.8268  -8.9169  -7.9053  -6.5512  -6.4954  -5.6926  -4.3256
    -3.4697  -1.4904  -0.9365   1.3314   2.7256   2.9484   3.7999   4.6897
     5.0343   5.1897   5.9005   6.9673

          k =-0.4787-0.8626 0.0002 (  2310 PWs)   bands (ev):

   -14.4261 -13.6202 -12.2324  -8.5265  -5.9221  -3.8458  -2.5267  -1.3962
    -0.6115  -0.5232  -0.2363   0.6301   0.8444   2.4635   4.4470   5.4321
     6.4241   8.3081   9.8223  11.0748

          k =-0.4786-0.8626 0.7753 (  2278 PWs)   bands (ev):

   -13.4029 -12.5657 -11.2126  -7.8675  -5.5776  -4.1090  -3.5953  -3.2670
    -2.3941  -1.8772  -0.5904   0.5700   1.2083   2.7927   4.3363   4.9217
     5.5669   6.9513   7.1361  10.2268

          k =-0.4787-0.8627-1.5499 (  2286 PWs)   bands (ev):

   -11.4917 -10.3329  -8.6536  -8.3559  -8.2054  -7.7649  -4.6809  -4.5296
    -1.6445  -1.4634   0.2679   1.0487   2.2419   2.5060   3.5092   4.3789
     5.3333   5.3822   6.2966   7.9802

     the Fermi energy is     5.2285 ev

!    total energy              =     -90.32597883 Ry
     Harris-Foulkes estimate   =     -90.32597883 Ry
     estimated scf accuracy    <       0.00000003 Ry

     The total energy is the sum of the following terms:

     one-electron contribution =     -60.21475258 Ry
     hartree contribution      =      44.09907164 Ry
     xc contribution           =     -27.38314655 Ry
     ewald contribution        =     -46.82742243 Ry
     smearing contrib. (-TS)   =       0.00027108 Ry

     convergence has been achieved in  11 iterations

     Forces acting on atoms (cartesian axes, Ry/au):

     atom    1 type  1   force =    -0.01109345   -0.00701158   -0.00005006
     atom    2 type  1   force =    -0.01180810    0.00622775    0.00003725
     atom    3 type  1   force =     0.01824919   -0.00741220    0.00002268
     atom    4 type  1   force =    -0.00387884   -0.00000443    0.00020372
     atom    5 type  1   force =     0.01249852   -0.00959070   -0.00002504
     atom    6 type  1   force =     0.00242104    0.00357123    0.00013053
     atom    7 type  1   force =    -0.01245967    0.01609937   -0.00014811
     atom    8 type  1   force =     0.00607131   -0.00187944   -0.00017097

     Total force =     0.038408     Total SCF correction =     0.000132


     Computing stress (Cartesian axis) and pressure

          total   stress  (Ry/bohr**3)                   (kbar)     P=       -0.39
  -0.00004839   0.00000300  -0.00000092           -7.12        0.44       -0.13
   0.00000300  -0.00005571   0.00000056            0.44       -8.20        0.08
  -0.00000092   0.00000056   0.00009622           -0.13        0.08       14.15


     number of scf cycles    =   4
     number of bfgs steps    =   3

     enthalpy old            =     -90.3234595091 Ry
     enthalpy new            =     -90.3259421374 Ry

     CASE: enthalpy_new < enthalpy_old

     new trust radius        =       0.0679475940 bohr
     new conv_thr            =       0.0000001825 Ry

     new unit-cell volume =    536.46402 a.u.^3 (    79.49576 Ang^3 )
     density =      2.00529 g/cm^3

CELL_PARAMETERS (bohr)
  13.928092528   0.656099006  -0.000834244
   0.465768527   8.247848798  -0.000575477
   0.002154119  -0.000198852   4.682363059

ATOMIC_POSITIONS (crystal)
C            -0.0053126594        0.7734684365        0.0258545375
C             0.0757827971        0.6081570343        0.5257592043
C             0.4625265482        0.2490532885        1.0261732303
C             0.0194724906        0.2883631444        0.5258230831
C             0.4126636867        0.3686708719        0.5262754883
C            -0.0138103656        0.1406728816        0.0258328397
C             0.8143547101        0.9373732133        0.0259596466
C             0.2785737923        0.6223921294        0.5259059701



     Writing output data file ./pp.save/
     NEW-OLD atomic charge density approx. for the potential
     extrapolated charge   31.80488, renormalised to   32.00000

     total cpu time spent up to now is       35.0 secs

     Self-consistent Calculation

     iteration #  1     ecut=    40.00 Ry     beta= 0.50
     Davidson diagonalization with overlap
     ethr =  1.00E-06,  avg # of iterations =  8.8

     total cpu time spent up to now is       38.3 secs

     total energy              =     -90.30138193 Ry
     Harris-Foulkes estimate   =     -90.63515233 Ry
     estimated scf accuracy    <       0.03530475 Ry

     iteration #  2     ecut=    40.00 Ry     beta= 0.50
     Davidson diagonalization with overlap
     ethr =  1.10E-04,  avg # of iterations =  3.8

     total cpu time spent up to now is       39.8 secs

     total energy              =     -90.29830399 Ry
     Harris-Foulkes estimate   =     -90.41370944 Ry
     estimated scf accuracy    <       0.77000814 Ry

     iteration #  3     ecut=    40.00 Ry     beta= 0.50
     Davidson diagonalization with overlap
     ethr =  1.10E-04,  avg # of iterations =  3.1

     total cpu time spent up to now is       41.1 secs

     total energy              =     -90.32823976 Ry
     Harris-Foulkes estimate   =     -90.33338931 Ry
     estimated scf accuracy    <       0.04593613 Ry

     iteration #  4     ecut=    40.00 Ry     beta= 0.50
     Davidson diagonalization with overlap
     ethr =  1.10E-04,  avg # of iterations =  1.2

     total cpu time spent up to now is       42.0 secs

     total energy              =     -90.32862090 Ry
     Harris-Foulkes estimate   =     -90.33044204 Ry
     estimated scf accuracy    <       0.02584025 Ry

     iteration #  5     ecut=    40.00 Ry     beta= 0.50
     Davidson diagonalization with overlap
     ethr =  8.08E-05,  avg # of iterations =  1.0

     total cpu time spent up to now is       42.7 secs

     total energy              =     -90.32865115 Ry
     Harris-Foulkes estimate   =     -90.32937663 Ry
     estimated scf accuracy    <       0.00661335 Ry

     iteration #  6     ecut=    40.00 Ry     beta= 0.50
     Davidson diagonalization with overlap
     ethr =  2.07E-05,  avg # of iterations =  2.2

     total cpu time spent up to now is       43.8 secs

     total energy              =     -90.32870230 Ry
     Harris-Foulkes estimate   =     -90.32892538 Ry
     estimated scf accuracy    <       0.00138327 Ry

     iteration #  7     ecut=    40.00 Ry     beta= 0.50
     Davidson diagonalization with overlap
     ethr =  4.32E-06,  avg # of iterations =  3.3

     total cpu time spent up to now is       45.2 secs

     total energy              =     -90.32886527 Ry
     Harris-Foulkes estimate   =     -90.32887054 Ry
     estimated scf accuracy    <       0.00002503 Ry

     iteration #  8     ecut=    40.00 Ry     beta= 0.50
     Davidson diagonalization with overlap
     ethr =  7.82E-08,  avg # of iterations =  3.3

     total cpu time spent up to now is       46.8 secs

     total energy              =     -90.32886331 Ry
     Harris-Foulkes estimate   =     -90.32888047 Ry
     estimated scf accuracy    <       0.00012366 Ry

     iteration #  9     ecut=    40.00 Ry     beta= 0.50
     Davidson diagonalization with overlap
     ethr =  7.82E-08,  avg # of iterations =  2.0

     total cpu time spent up to now is       47.9 secs

     total energy              =     -90.32887074 Ry
     Harris-Foulkes estimate   =     -90.32887099 Ry
     estimated scf accuracy    <       0.00000149 Ry

     iteration # 10     ecut=    40.00 Ry     beta= 0.50
     Davidson diagonalization with overlap
     ethr =  4.67E-09,  avg # of iterations =  2.3

     total cpu time spent up to now is       49.2 secs

     End of self-consistent calculation

          k = 0.0000 0.0000 0.0000 (  2285 PWs)   bands (ev):

   -15.2518 -12.5339 -10.5782  -9.7235  -6.5579  -4.6205  -2.3399  -1.1003
    -0.9412  -0.5093   0.3680   1.0846   2.2731   2.7601   3.4819   5.9573
     7.4103   7.9373   9.7506  10.8201

          k = 0.0000 0.0001 0.7754 (  2273 PWs)   bands (ev):

   -14.1692 -11.5436  -9.7944  -8.8235  -5.8344  -4.5371  -3.9538  -3.3504
    -2.0762  -1.1117  -0.5074   0.9812   1.4858   2.9235   3.8771   4.6964
     6.1409   6.6908   7.3288  10.4104

          k =-0.0001-0.0001-1.5508 (  2274 PWs)   bands (ev):

   -11.7016 -10.7047  -8.8007  -7.8518  -6.4674  -6.4582  -5.6659  -4.2663
    -3.3682  -1.2940  -0.8798   1.7244   2.6014   3.1924   3.7051   4.1134
     5.1284   5.5013   6.4051   7.0090

          k = 0.0416-0.8827-0.0001 (  2302 PWs)   bands (ev):

   -14.3019 -13.5321 -12.1382  -8.3858  -5.9771  -3.6851  -2.3637  -1.3994
    -0.5457  -0.2688  -0.1625   0.7942   0.9686   1.9627   4.1869   6.0526
     6.5778   8.4361   9.8889  10.9066

          k = 0.0416-0.8827 0.7753 (  2282 PWs)   bands (ev):

   -13.2761 -12.4760 -11.1202  -7.7423  -5.5512  -3.9958  -3.5490  -3.2090
    -2.2426  -1.7544  -0.5892   0.9297   1.1406   2.5847   4.7373   5.0372
     5.3614   6.7480   7.5564  10.4512

          k = 0.0415-0.8828-1.5509 (  2280 PWs)   bands (ev):

   -11.3533 -10.2256  -8.5474  -8.2792  -8.1241  -7.7115  -4.5674  -4.4150
    -1.5202  -1.3832   0.2968   0.8794   2.5316   2.5365   3.6863   4.8261
     5.4872   5.5417   5.9040   7.9470

          k =-0.5227 0.0295 0.0002 (  2286 PWs)   bands (ev):

   -15.2485 -12.5629 -10.5247  -9.7245  -6.5578  -4.8304  -2.0516  -0.9387
    -0.9214  -0.5127   0.3416   1.1021   2.0342   2.2722   3.6727   6.1608
     7.4247   7.9610   9.7125  11.0283

          k =-0.5227 0.0296 0.7756 (  2279 PWs)   bands (ev):

   -14.1661 -11.5704  -9.7490  -8.8246  -5.8514  -4.5387  -4.0231  -3.3955
    -1.9672  -1.1152  -0.3195   0.9156   1.4312   2.6688   3.9767   5.1514
     5.5571   6.5751   7.5681  10.5755

          k =-0.5228 0.0294-1.5506 (  2292 PWs)   bands (ev):

   -11.7009 -10.7016  -8.8132  -7.8652  -6.4540  -6.4460  -5.6568  -4.2428
    -3.3865  -1.3179  -0.8525   1.3803   2.8199   3.0400   3.9155   4.7290
     5.1381   5.3106   5.9816   6.9915

          k =-0.4812-0.8532 0.0002 (  2310 PWs)   bands (ev):

   -14.3051 -13.5217 -12.1468  -8.4405  -5.7827  -3.7388  -2.4660  -1.3999
    -0.5523  -0.5457  -0.1641   0.6756   0.9703   2.5782   4.4855   5.5813
     6.5094   8.4040   9.9367  11.0853

          k =-0.4811-0.8532 0.7756 (  2278 PWs)   bands (ev):

   -13.2789 -12.4665 -11.1283  -7.7800  -5.4463  -4.0067  -3.5616  -3.1774
    -2.2570  -1.8242  -0.5909   0.6340   1.2906   2.8360   4.4277   5.0039
     5.6676   7.0650   7.2298  10.3464

          k =-0.4812-0.8533-1.5506 (  2286 PWs)   bands (ev):

   -11.3535 -10.2245  -8.5578  -8.2704  -8.1124  -7.7204  -4.5841  -4.4299
    -1.4911  -1.3760   0.2727   1.1665   2.3304   2.5742   3.6133   4.3415
     5.4180   5.4706   6.4542   7.9807

     the Fermi energy is     5.3366 ev

!    total energy              =     -90.32887092 Ry
     Harris-Foulkes estimate   =     -90.32887096 Ry
     estimated scf accuracy    <       0.00000011 Ry

     The total energy is the sum of the following terms:

     one-electron contribution =     -57.23439578 Ry
     hartree contribution      =      42.70150702 Ry
     xc contribution           =     -27.37463266 Ry
     ewald contribution        =     -48.42073859 Ry
     smearing contrib. (-TS)   =      -0.00061092 Ry

     convergence has been achieved in  10 iterations

     Forces acting on atoms (cartesian axes, Ry/au):

     atom    1 type  1   force =    -0.02161405   -0.00671356   -0.00005266
     atom    2 type  1   force =    -0.00990669    0.01140396    0.00010604
     atom    3 type  1   force =     0.02469385   -0.01624158    0.00002451
     atom    4 type  1   force =     0.00388465    0.00240533   -0.00007861
     atom    5 type  1   force =     0.01196889    0.00018929   -0.00009904
     atom    6 type  1   force =    -0.00705485   -0.00008974    0.00004525
     atom    7 type  1   force =    -0.01182426    0.01886187    0.00007824
     atom    8 type  1   force =     0.00985245   -0.00981557   -0.00002373

     Total force =     0.050170     Total SCF correction =     0.000451


     Computing stress (Cartesian axis) and pressure

          total   stress  (Ry/bohr**3)                   (kbar)     P=       -5.99
  -0.00005739   0.00000580  -0.00000157           -8.44        0.85       -0.23
   0.00000580  -0.00019446   0.00000142            0.85      -28.61        0.21
  -0.00000157   0.00000142   0.00012970           -0.23        0.21       19.08


     number of scf cycles    =   5
     number of bfgs steps    =   4

     enthalpy old            =     -90.3259421374 Ry
     enthalpy new            =     -90.3288344568 Ry

     CASE: enthalpy_new < enthalpy_old

     new trust radius        =       0.0756029038 bohr
     new conv_thr            =       0.0000002469 Ry

     new unit-cell volume =    531.55460 a.u.^3 (    78.76826 Ang^3 )
     density =      2.02381 g/cm^3

CELL_PARAMETERS (bohr)
  13.716234368   0.733126773  -0.001305298
   0.501764162   8.305980408  -0.000897007
   0.001997755  -0.000370688   4.680870519

ATOMIC_POSITIONS (crystal)
C            -0.0069598703        0.7748750182        0.0258264971
C             0.0741634448        0.6067034968        0.5257496427
C             0.4666087902        0.2476200822        1.0261940116
C             0.0179269804        0.2890585493        0.5260784003
C             0.4145595396        0.3634426319        0.5262850798
C            -0.0128745428        0.1406214465        0.0260432611
C             0.8112983474        0.9440951519        0.0256874336
C             0.2795283108        0.6217346233        0.5257196738



     Writing output data file ./pp.save/
     NEW-OLD atomic charge density approx. for the potential
     extrapolated charge   31.70445, renormalised to   32.00000

     total cpu time spent up to now is       49.2 secs

     Self-consistent Calculation

     iteration #  1     ecut=    40.00 Ry     beta= 0.50
     Davidson diagonalization with overlap
     ethr =  1.00E-06,  avg # of iterations =  9.2

     total cpu time spent up to now is       53.5 secs

     total energy              =     -90.27317353 Ry
     Harris-Foulkes estimate   =     -90.77059822 Ry
     estimated scf accuracy    <       0.07584131 Ry

     iteration #  2     ecut=    40.00 Ry     beta= 0.50
     Davidson diagonalization with overlap
     ethr =  2.37E-04,  avg # of iterations =  3.8

     total cpu time spent up to now is       55.5 secs

     total energy              =     -90.28726527 Ry
     Harris-Foulkes estimate   =     -90.49348728 Ry
     estimated scf accuracy    <       1.19406008 Ry

     iteration #  3     ecut=    40.00 Ry     beta= 0.50
     Davidson diagonalization with overlap
     ethr =  2.37E-04,  avg # of iterations =  3.0

     total cpu time spent up to now is       57.1 secs

     total energy              =     -90.33260043 Ry
     Harris-Foulkes estimate   =     -90.34250845 Ry
     estimated scf accuracy    <       0.11415133 Ry

     iteration #  4     ecut=    40.00 Ry     beta= 0.50
     Davidson diagonalization with overlap
     ethr =  2.37E-04,  avg # of iterations =  1.2

     total cpu time spent up to now is       58.2 secs

     total energy              =     -90.33140068 Ry
     Harris-Foulkes estimate   =     -90.33570166 Ry
     estimated scf accuracy    <       0.04938059 Ry

     iteration #  5     ecut=    40.00 Ry     beta= 0.50
     Davidson diagonalization with overlap
     ethr =  1.54E-04,  avg # of iterations =  1.0

     total cpu time spent up to now is       59.1 secs

     total energy              =     -90.33241392 Ry
     Harris-Foulkes estimate   =     -90.33321324 Ry
     estimated scf accuracy    <       0.00771390 Ry

     iteration #  6     ecut=    40.00 Ry     beta= 0.50
     Davidson diagonalization with overlap
     ethr =  2.41E-05,  avg # of iterations =  2.8

     total cpu time spent up to now is       60.7 secs

     total energy              =     -90.33256685 Ry
     Harris-Foulkes estimate   =     -90.33280406 Ry
     estimated scf accuracy    <       0.00336245 Ry

     iteration #  7     ecut=    40.00 Ry     beta= 0.50
     Davidson diagonalization with overlap
     ethr =  1.05E-05,  avg # of iterations =  2.0

     total cpu time spent up to now is       62.0 secs

     total energy              =     -90.33238497 Ry
     Harris-Foulkes estimate   =     -90.33268590 Ry
     estimated scf accuracy    <       0.00188282 Ry

     iteration #  8     ecut=    40.00 Ry     beta= 0.50
     Davidson diagonalization with overlap
     ethr =  5.88E-06,  avg # of iterations =  2.6

     total cpu time spent up to now is       63.5 secs

     total energy              =     -90.33258816 Ry
     Harris-Foulkes estimate   =     -90.33258783 Ry
     estimated scf accuracy    <       0.00006835 Ry

     iteration #  9     ecut=    40.00 Ry     beta= 0.50
     Davidson diagonalization with overlap
     ethr =  2.14E-07,  avg # of iterations =  3.2

     total cpu time spent up to now is       65.4 secs

     total energy              =     -90.33258773 Ry
     Harris-Foulkes estimate   =     -90.33260359 Ry
     estimated scf accuracy    <       0.00009511 Ry

     iteration # 10     ecut=    40.00 Ry     beta= 0.50
     Davidson diagonalization with overlap
     ethr =  2.14E-07,  avg # of iterations =  1.2

     total cpu time spent up to now is       66.5 secs

     total energy              =     -90.33259384 Ry
     Harris-Foulkes estimate   =     -90.33259420 Ry
     estimated scf accuracy    <       0.00000188 Ry

     iteration # 11     ecut=    40.00 Ry     beta= 0.50
     Davidson diagonalization with overlap
     ethr =  5.87E-09,  avg # of iterations =  3.0

     total cpu time spent up to now is       68.4 secs

     End of self-consistent calculation

          k = 0.0000 0.0000 0.0000 (  2285 PWs)   bands (ev):

   -15.0998 -12.4213 -10.4595  -9.6574  -6.4401  -4.4566  -2.2027  -1.0260
    -0.7975  -0.4740   0.4606   1.1729   2.3921   2.9285   3.5780   6.1368
     7.4733   8.0513   9.9015  10.9001

          k = 0.0001 0.0001 0.7756 (  2273 PWs)   bands (ev):

   -14.0170 -11.4321  -9.6681  -8.7583  -5.7086  -4.3814  -3.8260  -3.2761
    -1.9243  -1.0044  -0.4115   1.0489   1.5917   3.0370   3.9730   4.8080
     6.3238   6.8228   7.4737  10.5230

          k =-0.0001-0.0002-1.5513 (  2274 PWs)   bands (ev):

   -11.5524 -10.5594  -8.6718  -7.7721  -6.3832  -6.3274  -5.5805  -4.1561
    -3.2548  -1.0991  -0.7719   1.8338   2.6806   3.3303   3.8185   4.1281
     5.2753   5.6224   6.6246   7.0736

          k = 0.0469-0.8771-0.0001 (  2302 PWs)   bands (ev):

   -14.1649 -13.4096 -12.0218  -8.2582  -5.8626  -3.5609  -2.2566  -1.3619
    -0.5205  -0.1138  -0.0362   0.9274   1.1268   1.9728   4.2586   6.2168
     6.7732   8.5625  10.0243  10.9598

          k = 0.0469-0.8770 0.7756 (  2282 PWs)   bands (ev):

   -13.1385 -12.3529 -11.0047  -7.6183  -5.4258  -3.8623  -3.4812  -3.0836
    -2.0934  -1.6424  -0.5437   1.0779   1.2473   2.5935   4.8244   5.2352
     5.4684   6.8465   7.7448  10.5999

          k = 0.0467-0.8772-1.5514 (  2280 PWs)   bands (ev):

   -11.2145 -10.0974  -8.4206  -8.1588  -8.0002  -7.6224  -4.4393  -4.2777
    -1.4032  -1.2159   0.3469   0.9469   2.6191   2.6500   3.8399   4.8662
     5.6107   5.6856   6.0945   7.9946

          k =-0.5311 0.0321 0.0002 (  2286 PWs)   bands (ev):

   -15.0954 -12.4584 -10.3922  -9.6581  -6.4401  -4.7158  -1.8469  -0.8133
    -0.7927  -0.4799   0.4264   1.1915   2.1074   2.3911   3.7649   6.3367
     7.5228   8.0819   9.8529  11.0529

          k =-0.5310 0.0322 0.7759 (  2279 PWs)   bands (ev):

   -14.0129 -11.4665  -9.6104  -8.7598  -5.7297  -4.3821  -3.9074  -3.3383
    -1.7885  -1.0103  -0.1822   0.9847   1.5231   2.7329   4.0664   5.3184
     5.6898   6.6839   7.7440  10.7145

          k =-0.5313 0.0319-1.5511 (  2292 PWs)   bands (ev):

   -11.5514 -10.5552  -8.6883  -7.7885  -6.3665  -6.3134  -5.5678  -4.1256
    -3.2770  -1.1310  -0.7369   1.4243   2.9285   3.1587   4.0626   4.7927
     5.2814   5.4618   6.1357   7.0559

          k =-0.4842-0.8450 0.0001 (  2310 PWs)   bands (ev):

   -14.1695 -13.3955 -12.0325  -8.3294  -5.6205  -3.6162  -2.3776  -1.3585
    -0.5207  -0.4771  -0.0378   0.7555   1.1291   2.7315   4.5617   5.7742
     6.6445   8.5211  10.0858  11.1364

          k =-0.4842-0.8449 0.7758 (  2278 PWs)   bands (ev):

   -13.1425 -12.3400 -11.0147  -7.6677  -5.2948  -3.8738  -3.4952  -3.0453
    -2.0981  -1.7364  -0.5434   0.7100   1.4005   2.9195   4.5376   5.1198
     5.8108   7.2332   7.3604  10.4797

          k =-0.4844-0.8451-1.5511 (  2286 PWs)   bands (ev):

   -11.2148 -10.0960  -8.4343  -8.1467  -7.9844  -7.6344  -4.4617  -4.2970
    -1.3816  -1.1905   0.3160   1.2922   2.4273   2.6731   3.7393   4.3318
     5.5292   5.6061   6.6813   8.0259

     the Fermi energy is     5.4806 ev

!    total energy              =     -90.33259433 Ry
     Harris-Foulkes estimate   =     -90.33259436 Ry
     estimated scf accuracy    <       0.00000009 Ry

     The total energy is the sum of the following terms:

     one-electron contribution =     -53.97357630 Ry
     hartree contribution      =      41.20219578 Ry
     xc contribution           =     -27.37359859 Ry
     ewald contribution        =     -50.18602355 Ry
     smearing contrib. (-TS)   =      -0.00159165 Ry

     convergence has been achieved in  11 iterations

     Forces acting on atoms (cartesian axes, Ry/au):

     atom    1 type  1   force =    -0.02893462   -0.00731830   -0.00003678
     atom    2 type  1   force =    -0.00804365    0.01559594    0.00016356
     atom    3 type  1   force =     0.03387271   -0.02502915    0.00000602
     atom    4 type  1   force =     0.01080487    0.00305159   -0.00031272
     atom    5 type  1   force =     0.01486242    0.00577505   -0.00017660
     atom    6 type  1   force =    -0.01626272   -0.00071991   -0.00007812
     atom    7 type  1   force =    -0.01621036    0.02347051    0.00029242
     atom    8 type  1   force =     0.00991134   -0.01482574    0.00014222

     Total force =     0.068919     Total SCF correction =     0.000416


     Computing stress (Cartesian axis) and pressure

          total   stress  (Ry/bohr**3)                   (kbar)     P=      -10.51
  -0.00007125   0.00000237  -0.00000210          -10.48        0.35       -0.31
   0.00000237  -0.00029611   0.00000220            0.35      -43.56        0.32
  -0.00000210   0.00000220   0.00015312           -0.31        0.32       22.52


     number of scf cycles    =   6
     number of bfgs steps    =   5

     enthalpy old            =     -90.3288344568 Ry
     enthalpy new            =     -90.3325581941 Ry

     CASE: enthalpy_new < enthalpy_old


     WARNING: bfgs curvature condition failed, Theta= 0.481
     new trust radius        =       0.1147613160 bohr
     new conv_thr            =       0.0000003387 Ry

     new unit-cell volume =    525.23253 a.u.^3 (    77.83143 Ang^3 )
     density =      2.04817 g/cm^3

CELL_PARAMETERS (bohr)
  13.400398466   0.853731837  -0.001860693
   0.558789590   8.409408438  -0.001521108
   0.001802893  -0.000710211   4.680700823

ATOMIC_POSITIONS (crystal)
C            -0.0091971850        0.7769819027        0.0257739295
C             0.0713834082        0.6041297344        0.5257235086
C             0.4722274875        0.2465963224        1.0262337322
C             0.0150387198        0.2901755545        0.5265278667
C             0.4171248429        0.3549394236        0.5263210396
C            -0.0107182805        0.1404335931        0.0264081481
C             0.8070539702        0.9537534760        0.0252141285
C             0.2813380370        0.6211409934        0.5253816469



     Writing output data file ./pp.save/
     NEW-OLD atomic charge density approx. for the potential
     extrapolated charge   31.61483, renormalised to   32.00000

     total cpu time spent up to now is       68.5 secs

     Self-consistent Calculation

     iteration #  1     ecut=    40.00 Ry     beta= 0.50
     Davidson diagonalization with overlap
     ethr =  1.00E-06,  avg # of iterations =  9.7

     total cpu time spent up to now is       74.0 secs

     total energy              =     -90.25857858 Ry
     Harris-Foulkes estimate   =     -90.86009516 Ry
     estimated scf accuracy    <       0.10045139 Ry

     iteration #  2     ecut=    40.00 Ry     beta= 0.50
     Davidson diagonalization with overlap
     ethr =  3.14E-04,  avg # of iterations =  3.8

     total cpu time spent up to now is       76.5 secs

     total energy              =     -90.28665271 Ry
     Harris-Foulkes estimate   =     -90.52615819 Ry
     estimated scf accuracy    <       1.28519670 Ry

     iteration #  3     ecut=    40.00 Ry     beta= 0.50
     Davidson diagonalization with overlap
     ethr =  3.14E-04,  avg # of iterations =  2.9

     total cpu time spent up to now is       78.4 secs

     total energy              =     -90.33712320 Ry
     Harris-Foulkes estimate   =     -90.35009600 Ry
     estimated scf accuracy    <       0.14179615 Ry

     iteration #  4     ecut=    40.00 Ry     beta= 0.50
     Davidson diagonalization with overlap
     ethr =  3.14E-04,  avg # of iterations =  1.2

     total cpu time spent up to now is       79.6 secs

     total energy              =     -90.33528489 Ry
     Harris-Foulkes estimate   =     -90.34117402 Ry
     estimated scf accuracy    <       0.06547358 Ry

     iteration #  5     ecut=    40.00 Ry     beta= 0.50
     Davidson diagonalization with overlap
     ethr =  2.05E-04,  avg # of iterations =  1.0

     total cpu time spent up to now is       80.8 secs

     total energy              =     -90.33644444 Ry
     Harris-Foulkes estimate   =     -90.33794725 Ry
     estimated scf accuracy    <       0.00984132 Ry

     iteration #  6     ecut=    40.00 Ry     beta= 0.50
     Davidson diagonalization with overlap
     ethr =  3.08E-05,  avg # of iterations =  3.3

     total cpu time spent up to now is       82.9 secs

     total energy              =     -90.33711290 Ry
     Harris-Foulkes estimate   =     -90.33721425 Ry
     estimated scf accuracy    <       0.00206183 Ry

     iteration #  7     ecut=    40.00 Ry     beta= 0.50
     Davidson diagonalization with overlap
     ethr =  6.44E-06,  avg # of iterations =  2.6

     total cpu time spent up to now is       84.8 secs

     total energy              =     -90.33676347 Ry
     Harris-Foulkes estimate   =     -90.33727206 Ry
     estimated scf accuracy    <       0.00337511 Ry

     iteration #  8     ecut=    40.00 Ry     beta= 0.50
     Davidson diagonalization with overlap
     ethr =  6.44E-06,  avg # of iterations =  1.2

     total cpu time spent up to now is       86.1 secs

     total energy              =     -90.33705600 Ry
     Harris-Foulkes estimate   =     -90.33705902 Ry
     estimated scf accuracy    <       0.00011351 Ry

     iteration #  9     ecut=    40.00 Ry     beta= 0.50
     Davidson diagonalization with overlap
     ethr =  3.55E-07,  avg # of iterations =  3.5

     total cpu time spent up to now is       88.5 secs

     total energy              =     -90.33705846 Ry
     Harris-Foulkes estimate   =     -90.33707130 Ry
     estimated scf accuracy    <       0.00009277 Ry

     iteration # 10     ecut=    40.00 Ry     beta= 0.50
     Davidson diagonalization with overlap
     ethr =  2.90E-07,  avg # of iterations =  1.0

     total cpu time spent up to now is       89.8 secs

     total energy              =     -90.33706241 Ry
     Harris-Foulkes estimate   =     -90.33706334 Ry
     estimated scf accuracy    <       0.00000474 Ry

     iteration # 11     ecut=    40.00 Ry     beta= 0.50
     Davidson diagonalization with overlap
     ethr =  1.48E-08,  avg # of iterations =  2.8

     total cpu time spent up to now is       91.8 secs

     End of self-consistent calculation

          k = 0.0000 0.0000 0.0000 (  2285 PWs)   bands (ev):

   -14.8642 -12.2788 -10.2814  -9.5695  -6.2704  -4.2016  -2.0011  -0.9347
    -0.6594  -0.4449   0.5770   1.3039   2.5543   3.1760   3.6946   6.4483
     7.5496   8.2122  10.1060  10.9496

          k = 0.0001 0.0001 0.7757 (  2273 PWs)   bands (ev):

   -13.7818 -11.2925  -9.4764  -8.6762  -5.5264  -4.1569  -3.6629  -3.1924
    -1.6994  -0.8468  -0.2848   1.1335   1.7275   3.2034   4.0829   4.9703
     6.6001   7.0192   7.6983  10.6612

          k =-0.0002-0.0003-1.5513 (  2274 PWs)   bands (ev):

   -11.3217 -10.3402  -8.5139  -7.6980  -6.2691  -6.1390  -5.4589  -3.9936
    -3.0908  -0.7751  -0.6286   1.9608   2.7808   3.5334   3.9652   4.1542
     5.4810   5.7692   6.9842   7.1215

          k = 0.0552-0.8672-0.0002 (  2302 PWs)   bands (ev):

   -13.9510 -13.2306 -11.8754  -8.0592  -5.6997  -3.3940  -2.1053  -1.3247
    -0.5781   0.1167   0.1406   1.1386   1.3594   1.9732   4.3365   6.4176
     7.1501   8.7394  10.2040  10.9929

          k = 0.0553-0.8670 0.7755 (  2282 PWs)   bands (ev):

   -12.9241 -12.1743 -10.8616  -7.4268  -5.2442  -3.6792  -3.4500  -2.8961
    -1.8868  -1.4653  -0.4918   1.2899   1.4095   2.5818   4.9270   5.4991
     5.6571   6.9834   8.0471  10.7821

          k = 0.0550-0.8674-1.5515 (  2280 PWs)   bands (ev):

   -10.9985  -9.9091  -8.2619  -8.0021  -7.8215  -7.5201  -4.2464  -4.0709
    -1.2764  -0.8992   0.4007   1.0167   2.7252   2.7963   4.0579   4.9044
     5.7826   5.8861   6.4189   8.0150

          k =-0.5442 0.0362 0.0002 (  2286 PWs)   bands (ev):

   -14.8571 -12.3314 -10.1898  -9.5682  -6.2700  -4.5529  -1.5274  -0.6577
    -0.6475  -0.4582   0.5280   1.3275   2.2114   2.5531   3.8556   6.5937
     7.6980   8.2555  10.0385  10.9914

          k =-0.5441 0.0363 0.7759 (  2279 PWs)   bands (ev):

   -13.7752 -11.3412  -9.3958  -8.6783  -5.5543  -4.1538  -3.7502  -3.3068
    -1.5153  -0.8587   0.0229   1.0700   1.6449   2.8082   4.1583   5.5434
     5.9233   6.8312   8.0206  10.8989

          k =-0.5444 0.0359-1.5511 (  2292 PWs)   bands (ev):

   -11.3201 -10.3336  -8.5383  -7.7198  -6.2468  -6.1238  -5.4379  -3.9495
    -3.1195  -0.8242  -0.5777   1.4478   3.0730   3.3268   4.2712   4.8670
     5.4795   5.6700   6.4063   7.1047

          k =-0.4889-0.8310 0.0001 (  2310 PWs)   bands (ev):

   -13.9588 -13.2084 -11.8904  -8.1628  -5.3697  -3.4446  -2.2537  -1.3086
    -0.5785  -0.4057   0.1388   0.8580   1.3626   2.9890   4.6298   6.1091
     6.8583   8.6808  10.2898  11.1646

          k =-0.4888-0.8309 0.7757 (  2278 PWs)   bands (ev):

   -12.9309 -12.1541 -10.8757  -7.4989  -5.0656  -3.6895  -3.4651  -2.8462
    -1.8645  -1.6072  -0.4860   0.7836   1.5511   3.0508   4.6808   5.2812
     6.0222   7.4743   7.5811  10.6424

          k =-0.4891-0.8313-1.5513 (  2286 PWs)   bands (ev):

   -10.9990  -9.9072  -8.2815  -7.9824  -7.7980  -7.5395  -4.2803  -4.0984
    -1.2600  -0.8474   0.3569   1.4606   2.5476   2.8114   3.9041   4.3045
     5.6708   5.7922   7.0428   8.0397

     the Fermi energy is     5.6860 ev

!    total energy              =     -90.33706314 Ry
     Harris-Foulkes estimate   =     -90.33706316 Ry
     estimated scf accuracy    <       0.00000009 Ry

     The total energy is the sum of the following terms:

     one-electron contribution =     -49.57068484 Ry
     hartree contribution      =      39.17802718 Ry
     xc contribution           =     -27.36715327 Ry
     ewald contribution        =     -52.57472474 Ry
     smearing contrib. (-TS)   =      -0.00252748 Ry

     convergence has been achieved in  11 iterations

     Forces acting on atoms (cartesian axes, Ry/au):

     atom    1 type  1   force =    -0.03958765   -0.00738811    0.00001599
     atom    2 type  1   force =    -0.00125299    0.02369180    0.00027393
     atom    3 type  1   force =     0.05254337   -0.04184785   -0.00000237
     atom    4 type  1   force =     0.02393217    0.00417656   -0.00077710
     atom    5 type  1   force =     0.01934972    0.01745782   -0.00040913
     atom    6 type  1   force =    -0.03203911   -0.00325875   -0.00023622
     atom    7 type  1   force =    -0.02640180    0.03176064    0.00067184
     atom    8 type  1   force =     0.00345629   -0.02459210    0.00046307

     Total force =     0.106430     Total SCF correction =     0.000386


     Computing stress (Cartesian axis) and pressure

          total   stress  (Ry/bohr**3)                   (kbar)     P=      -19.54
  -0.00011897  -0.00002063  -0.00000314          -17.50       -3.03       -0.46
  -0.00002063  -0.00047729   0.00000380           -3.03      -70.21        0.56
  -0.00000314   0.00000380   0.00019777           -0.46        0.56       29.09


     number of scf cycles    =   7
     number of bfgs steps    =   6

     enthalpy old            =     -90.3325581941 Ry
     enthalpy new            =     -90.3370274387 Ry

     CASE: enthalpy_new < enthalpy_old


     WARNING: bfgs curvature condition failed, Theta= 0.824
     new trust radius        =       0.1754552251 bohr
     new conv_thr            =       0.0000004469 Ry

     new unit-cell volume =    514.97851 a.u.^3 (    76.31194 Ang^3 )
     density =      2.08895 g/cm^3

CELL_PARAMETERS (bohr)
  12.926100463   1.033007857  -0.002707443
   0.643475594   8.563475622  -0.002441248
   0.001507607  -0.001210377   4.680447221

ATOMIC_POSITIONS (crystal)
C            -0.0125257073        0.7801579833        0.0256968389
C             0.0672813404        0.6003168364        0.5256852951
C             0.4806792266        0.2449732280        1.0262936526
C             0.0107544152        0.2918548872        0.5271947142
C             0.4209631911        0.3423116502        0.5263700003
C            -0.0075205747        0.1401132310        0.0269538799
C             0.8006639375        0.9682236406        0.0245094314
C             0.2839551711        0.6201995433        0.5248801876



     Writing output data file ./pp.save/
     NEW-OLD atomic charge density approx. for the potential
     extrapolated charge   31.36284, renormalised to   32.00000

     total cpu time spent up to now is       91.9 secs

     Self-consistent Calculation

     iteration #  1     ecut=    40.00 Ry     beta= 0.50
     Davidson diagonalization with overlap
     c_bands:  1 eigenvalues not converged
     c_bands:  1 eigenvalues not converged
     ethr =  1.00E-06,  avg # of iterations = 13.8

     total cpu time spent up to now is      100.2 secs

     total energy              =     -90.22105269 Ry
     Harris-Foulkes estimate   =     -91.10295970 Ry
     estimated scf accuracy    <       0.15193511 Ry

     iteration #  2     ecut=    40.00 Ry     beta= 0.50
     Davidson diagonalization with overlap
     ethr =  4.75E-04,  avg # of iterations =  4.0

     total cpu time spent up to now is      103.2 secs

     total energy              =     -90.28146158 Ry
     Harris-Foulkes estimate   =     -90.57677309 Ry
     estimated scf accuracy    <       1.40974707 Ry

     iteration #  3     ecut=    40.00 Ry     beta= 0.50
     Davidson diagonalization with overlap
     ethr =  4.75E-04,  avg # of iterations =  2.6

     total cpu time spent up to now is      105.4 secs

     total energy              =     -90.34644404 Ry
     Harris-Foulkes estimate   =     -90.36359359 Ry
     estimated scf accuracy    <       0.17601424 Ry

     iteration #  4     ecut=    40.00 Ry     beta= 0.50
     Davidson diagonalization with overlap
     ethr =  4.75E-04,  avg # of iterations =  1.0

     total cpu time spent up to now is      106.8 secs

     total energy              =     -90.34362582 Ry
     Harris-Foulkes estimate   =     -90.35172304 Ry
     estimated scf accuracy    <       0.09117648 Ry

     iteration #  5     ecut=    40.00 Ry     beta= 0.50
     Davidson diagonalization with overlap
     ethr =  2.85E-04,  avg # of iterations =  1.0

     total cpu time spent up to now is      108.2 secs

     total energy              =     -90.34411726 Ry
     Harris-Foulkes estimate   =     -90.34673230 Ry
     estimated scf accuracy    <       0.02051998 Ry

     iteration #  6     ecut=    40.00 Ry     beta= 0.50
     Davidson diagonalization with overlap
     ethr =  6.41E-05,  avg # of iterations =  3.2

     total cpu time spent up to now is      110.5 secs

     total energy              =     -90.34458590 Ry
     Harris-Foulkes estimate   =     -90.34533126 Ry
     estimated scf accuracy    <       0.00863124 Ry

     iteration #  7     ecut=    40.00 Ry     beta= 0.50
     Davidson diagonalization with overlap
     ethr =  2.70E-05,  avg # of iterations =  1.5

     total cpu time spent up to now is      112.2 secs

     total energy              =     -90.34401665 Ry
     Harris-Foulkes estimate   =     -90.34492318 Ry
     estimated scf accuracy    <       0.00509633 Ry

     iteration #  8     ecut=    40.00 Ry     beta= 0.50
     Davidson diagonalization with overlap
     ethr =  1.59E-05,  avg # of iterations =  2.2

     total cpu time spent up to now is      114.1 secs

     total energy              =     -90.34461295 Ry
     Harris-Foulkes estimate   =     -90.34462424 Ry
     estimated scf accuracy    <       0.00036637 Ry

     iteration #  9     ecut=    40.00 Ry     beta= 0.50
     Davidson diagonalization with overlap
     ethr =  1.14E-06,  avg # of iterations =  4.0

     total cpu time spent up to now is      117.1 secs

     total energy              =     -90.34461682 Ry
     Harris-Foulkes estimate   =     -90.34466873 Ry
     estimated scf accuracy    <       0.00031599 Ry

     iteration # 10     ecut=    40.00 Ry     beta= 0.50
     Davidson diagonalization with overlap
     ethr =  9.87E-07,  avg # of iterations =  1.0

     total cpu time spent up to now is      118.6 secs

     total energy              =     -90.34463510 Ry
     Harris-Foulkes estimate   =     -90.34463751 Ry
     estimated scf accuracy    <       0.00000956 Ry

     iteration # 11     ecut=    40.00 Ry     beta= 0.50
     Davidson diagonalization with overlap
     ethr =  2.99E-08,  avg # of iterations =  3.0

     total cpu time spent up to now is      121.2 secs

     total energy              =     -90.34463723 Ry
     Harris-Foulkes estimate   =     -90.34463750 Ry
     estimated scf accuracy    <       0.00000224 Ry

     iteration # 12     ecut=    40.00 Ry     beta= 0.50
     Davidson diagonalization with overlap
     ethr =  7.01E-09,  avg # of iterations =  1.0

     total cpu time spent up to now is      122.7 secs

     End of self-consistent calculation

[...]
     atom    8 type  1   force =     0.00118908   -0.00025392   -0.00056473

     Total force =     0.008759     Total SCF correction =     0.000346


     Computing stress (Cartesian axis) and pressure

          total   stress  (Ry/bohr**3)                   (kbar)     P=       -2.12
  -0.00002085  -0.00000745   0.00000003           -3.07       -1.10        0.01
  -0.00000745  -0.00004848  -0.00000373           -1.10       -7.13       -0.55
   0.00000003  -0.00000373   0.00002608            0.01       -0.55        3.84


     number of scf cycles    =  40
     number of bfgs steps    =  39

     enthalpy old            =     -90.6834744361 Ry
     enthalpy new            =     -90.6836865711 Ry

     CASE: enthalpy_new < enthalpy_old

     new trust radius        =       0.0370090993 bohr
     new conv_thr            =       0.0000000212 Ry

     new unit-cell volume =    508.64442 a.u.^3 (    75.37333 Ang^3 )
     density =      2.11496 g/cm^3

CELL_PARAMETERS (bohr)
  14.680199396   4.312206980  -0.002923248
   1.954499097   7.962205965   0.066705128
   0.010700130   0.045249951   4.690138152

ATOMIC_POSITIONS (crystal)
C            -0.0418284373        0.8736039713        0.0236962075
C             0.0533422396        0.6295515063        0.5274935545
C             0.5639270182        0.1906400605        1.0266739302
C             0.0111601125        0.3237750316        0.5359199163
C             0.4480554391        0.2943926883        0.5268032167
C            -0.0022049884        0.1824806440        0.0142907259
C             0.7518438252        1.0231790725        0.0267564899
C             0.2599557912        0.4705280255        0.5259499590



     Writing output data file ./pp.save/
     NEW-OLD atomic charge density approx. for the potential
     extrapolated charge   31.97828, renormalised to   32.00000

     total cpu time spent up to now is     2392.4 secs

     Self-consistent Calculation

     iteration #  1     ecut=    40.00 Ry     beta= 0.50
     Davidson diagonalization with overlap
     ethr =  1.00E-06,  avg # of iterations =  5.3

     total cpu time spent up to now is     2414.8 secs

     total energy              =     -90.68380556 Ry
     Harris-Foulkes estimate   =     -90.71148695 Ry
     estimated scf accuracy    <       0.00018131 Ry

     iteration #  2     ecut=    40.00 Ry     beta= 0.50
     Davidson diagonalization with overlap
     ethr =  5.67E-07,  avg # of iterations =  3.1

     total cpu time spent up to now is     2428.5 secs

     total energy              =     -90.68382563 Ry
     Harris-Foulkes estimate   =     -90.68387961 Ry
     estimated scf accuracy    <       0.00013466 Ry

     iteration #  3     ecut=    40.00 Ry     beta= 0.50
     Davidson diagonalization with overlap
     ethr =  4.21E-07,  avg # of iterations =  2.2

     total cpu time spent up to now is     2439.3 secs

     total energy              =     -90.68382390 Ry
     Harris-Foulkes estimate   =     -90.68387143 Ry
     estimated scf accuracy    <       0.00021155 Ry

     iteration #  4     ecut=    40.00 Ry     beta= 0.50
     Davidson diagonalization with overlap
     ethr =  4.21E-07,  avg # of iterations =  1.7

     total cpu time spent up to now is     2448.6 secs

     total energy              =     -90.68384049 Ry
     Harris-Foulkes estimate   =     -90.68387598 Ry
     estimated scf accuracy    <       0.00027595 Ry

     iteration #  5     ecut=    40.00 Ry     beta= 0.50
     Davidson diagonalization with overlap
     ethr =  4.21E-07,  avg # of iterations =  1.0

     total cpu time spent up to now is     2456.5 secs

     total energy              =     -90.68385825 Ry
     Harris-Foulkes estimate   =     -90.68385813 Ry
     estimated scf accuracy    <       0.00000124 Ry

     iteration #  6     ecut=    40.00 Ry     beta= 0.50
     Davidson diagonalization with overlap
     ethr =  3.88E-09,  avg # of iterations =  3.2

     total cpu time spent up to now is     2470.7 secs

     total energy              =     -90.68385871 Ry
     Harris-Foulkes estimate   =     -90.68385874 Ry
     estimated scf accuracy    <       0.00000038 Ry

     iteration #  7     ecut=    40.00 Ry     beta= 0.50
     Davidson diagonalization with overlap
     ethr =  1.17E-09,  avg # of iterations =  1.5

     total cpu time spent up to now is     2479.7 secs

     total energy              =     -90.68385875 Ry
     Harris-Foulkes estimate   =     -90.68385876 Ry
     estimated scf accuracy    <       0.00000005 Ry

     iteration #  8     ecut=    40.00 Ry     beta= 0.50
     Davidson diagonalization with overlap
     ethr =  1.57E-10,  avg # of iterations =  2.2

     total cpu time spent up to now is     2491.0 secs

     End of self-consistent calculation

          k = 0.0000 0.0000 0.0000 (  2285 PWs)   bands (ev):

   -13.9195 -11.6142  -9.5632  -8.8337  -6.8574  -4.8372  -3.4081   0.1174
     0.2424   0.4247   1.3096   1.8392   2.2315   3.5284   5.1603   7.6594
     7.7124  10.1743  11.3689  11.4342

          k = 0.0022-0.0070 0.7742 (  2273 PWs)   bands (ev):

   -12.8057 -10.5663  -8.7690  -7.8839  -6.2009  -4.0327  -3.2925  -3.1647
    -1.5106  -0.2537   0.0041   1.3019   1.5563   2.6366   4.3548   4.9127
     7.7137   8.6215   9.8365  11.8239

          k =-0.0044 0.0141-1.5483 (  2274 PWs)   bands (ev):

    -9.7971  -9.6751  -7.8459  -7.7169  -5.5818  -5.2068  -4.1074  -3.9765
    -2.4676  -2.3922  -1.2669  -1.2228   3.6856   3.7372   4.1735   4.2574
     5.6959   6.6205   9.7256   9.7665

          k = 0.2887-0.9829 0.0088 (  2302 PWs)   bands (ev):

   -12.9554 -11.9943 -11.6168  -7.9444  -7.2812  -2.1520  -1.4536  -1.4100
    -0.7869   0.3396   0.9257   1.7906   1.8702   2.1888   3.8699   7.8511
     9.0406   9.5967  11.2086  13.1859

          k = 0.2910-0.9900 0.7830 (  2282 PWs)   bands (ev):

   -11.8533 -10.9635 -10.5620  -7.2147  -6.5925  -2.9090  -2.2637  -1.6365
    -1.3536  -1.3249  -0.8748  -0.0482   1.2512   2.7264   4.3851   6.0700
     6.3082   8.6068  10.2012  12.2320

          k = 0.2843-0.9689-1.5395 (  2280 PWs)   bands (ev):

    -9.2655  -9.0972  -7.8192  -7.6432  -7.3056  -6.8604  -3.7145  -3.6676
    -2.3931  -2.3504  -0.0500   0.0973   3.3802   3.4822   4.5071   4.5492
     5.6340   6.4226   9.8174   9.8913

          k =-0.5331 0.1309-0.0000 (  2286 PWs)   bands (ev):

   -13.8758 -11.8798  -9.1869  -8.1548  -7.6497  -5.7987  -1.1743  -1.1326
     0.1264   0.3629   1.2946   1.8623   2.8761   3.4180   4.1852   7.5778
     9.0752   9.3956  10.8630  11.8220

          k =-0.5309 0.1238 0.7741 (  2279 PWs)   bands (ev):

   -12.7615 -10.8389  -8.2906  -7.4877  -6.8716  -4.8171  -3.2625  -1.5936
    -1.3917  -1.1792  -0.1372   0.9342   2.0468   2.5893   4.6278   6.0753
     6.2172   7.6450  11.1444  12.2668

          k =-0.5375 0.1449-1.5484 (  2292 PWs)   bands (ev):

    -9.7699  -9.6489  -7.9007  -7.8727  -5.5999  -5.1511  -3.4557  -3.3871
    -2.9124  -2.8982  -1.5760  -1.4789   3.7898   3.7982   4.5099   4.5158
     5.6790   6.6016   9.8516   9.8761

          k =-0.2443-0.8521 0.0088 (  2310 PWs)   bands (ev):

   -13.0811 -11.8147 -11.4052  -9.2132  -5.3414  -3.6121  -1.9236  -1.1674
    -0.2235   0.2055   0.9443   1.6156   1.9136   2.5543   4.5630   7.3986
     7.7982  11.3582  11.4084  12.4244

          k =-0.2421-0.8591 0.7830 (  2278 PWs)   bands (ev):

   -11.9830 -10.7790 -10.3467  -8.3893  -4.9544  -3.3358  -2.8537  -2.2911
    -1.1889  -0.9415  -0.2710  -0.1460   1.3624   2.3648   4.5905   5.0887
     7.6181   8.3957  10.3976  12.2193

          k =-0.2488-0.8380-1.5396 (  2286 PWs)   bands (ev):

    -9.2939  -9.1482  -7.7821  -7.5726  -7.1449  -6.8003  -4.3081  -4.2834
    -1.6908  -1.6485  -0.0910   0.0595   3.4010   3.4594   4.2210   4.2661
     5.4528   6.2165   9.9928  10.1311

     the Fermi energy is     6.1694 ev

!    total energy              =     -90.68385876 Ry
     Harris-Foulkes estimate   =     -90.68385876 Ry
     estimated scf accuracy    <       0.00000001 Ry

     The total energy is the sum of the following terms:

     one-electron contribution =     -46.94143258 Ry
     hartree contribution      =      38.37684983 Ry
     xc contribution           =     -27.70908872 Ry
     ewald contribution        =     -54.40803965 Ry
     smearing contrib. (-TS)   =      -0.00214763 Ry

     convergence has been achieved in   8 iterations

     Forces acting on atoms (cartesian axes, Ry/au):

     atom    1 type  1   force =    -0.00281898    0.00103678   -0.00059317
     atom    2 type  1   force =     0.00050342   -0.00191019    0.00069961
     atom    3 type  1   force =     0.00064297    0.00057572    0.00055689
     atom    4 type  1   force =     0.00220425   -0.00313795   -0.00056127
     atom    5 type  1   force =    -0.00147592    0.00197259   -0.00088658
     atom    6 type  1   force =    -0.00185543    0.00051417    0.00093627
     atom    7 type  1   force =    -0.00242338    0.00244231   -0.00017988
     atom    8 type  1   force =     0.00522307   -0.00149343    0.00002814

     Total force =     0.009092     Total SCF correction =     0.000265


     Computing stress (Cartesian axis) and pressure

          total   stress  (Ry/bohr**3)                   (kbar)     P=       -2.07
  -0.00004253  -0.00000010  -0.00001016           -6.26       -0.01       -1.50
  -0.00000010  -0.00002884  -0.00000414           -0.01       -4.24       -0.61
  -0.00001016  -0.00000414   0.00002921           -1.50       -0.61        4.30


     number of scf cycles    =  41
     number of bfgs steps    =  40

     enthalpy old            =     -90.6836865711 Ry
     enthalpy new            =     -90.6838241800 Ry

     CASE: enthalpy_new < enthalpy_old

     new trust radius        =       0.0196894057 bohr
     new conv_thr            =       0.0000000138 Ry

     new unit-cell volume =    508.46132 a.u.^3 (    75.34619 Ang^3 )
     density =      2.11572 g/cm^3

CELL_PARAMETERS (bohr)
  14.697838349   4.346849105  -0.002186973
   1.968821976   7.955640820   0.066643864
   0.010877266   0.045402948   4.692171991

ATOMIC_POSITIONS (crystal)
C            -0.0420744047        0.8739743265        0.0235792646
C             0.0534137978        0.6286034934        0.5276682189
C             0.5638299495        0.1913043656        1.0267404801
C             0.0113384891        0.3232624589        0.5360984130
C             0.4481006031        0.2939259814        0.5266265556
C            -0.0020401886        0.1819654378        0.0144489977
C             0.7516557293        1.0257380746        0.0266812207
C             0.2600270244        0.4693768618        0.5257408494



     Writing output data file ./pp.save/
     NEW-OLD atomic charge density approx. for the potential
     extrapolated charge   31.98848, renormalised to   32.00000

     total cpu time spent up to now is     2491.4 secs

     Self-consistent Calculation

     iteration #  1     ecut=    40.00 Ry     beta= 0.50
     Davidson diagonalization with overlap
     ethr =  1.00E-06,  avg # of iterations =  4.0

     total cpu time spent up to now is     2510.7 secs

     total energy              =     -90.68390668 Ry
     Harris-Foulkes estimate   =     -90.69853323 Ry
     estimated scf accuracy    <       0.00005964 Ry

     iteration #  2     ecut=    40.00 Ry     beta= 0.50
     Davidson diagonalization with overlap
     ethr =  1.86E-07,  avg # of iterations =  2.2

     total cpu time spent up to now is     2522.8 secs

     total energy              =     -90.68390101 Ry
     Harris-Foulkes estimate   =     -90.68393103 Ry
     estimated scf accuracy    <       0.00009868 Ry

     iteration #  3     ecut=    40.00 Ry     beta= 0.50
     Davidson diagonalization with overlap
     ethr =  1.86E-07,  avg # of iterations =  2.0

     total cpu time spent up to now is     2533.3 secs

     total energy              =     -90.68390232 Ry
     Harris-Foulkes estimate   =     -90.68393941 Ry
     estimated scf accuracy    <       0.00027558 Ry

     iteration #  4     ecut=    40.00 Ry     beta= 0.50
     Davidson diagonalization with overlap
     ethr =  1.86E-07,  avg # of iterations =  1.8

     total cpu time spent up to now is     2543.4 secs

     total energy              =     -90.68392132 Ry
     Harris-Foulkes estimate   =     -90.68392473 Ry
     estimated scf accuracy    <       0.00001492 Ry

     iteration #  5     ecut=    40.00 Ry     beta= 0.50
     Davidson diagonalization with overlap
     ethr =  4.66E-08,  avg # of iterations =  1.6

     total cpu time spent up to now is     2552.8 secs

     total energy              =     -90.68392312 Ry
     Harris-Foulkes estimate   =     -90.68392304 Ry
     estimated scf accuracy    <       0.00000033 Ry

     iteration #  6     ecut=    40.00 Ry     beta= 0.50
     Davidson diagonalization with overlap
     ethr =  1.04E-09,  avg # of iterations =  3.0

     total cpu time spent up to now is     2567.2 secs

     total energy              =     -90.68392321 Ry
     Harris-Foulkes estimate   =     -90.68392322 Ry
     estimated scf accuracy    <       0.00000008 Ry

     iteration #  7     ecut=    40.00 Ry     beta= 0.50
     Davidson diagonalization with overlap
     ethr =  2.60E-10,  avg # of iterations =  2.0

     total cpu time spent up to now is     2577.8 secs

     total energy              =     -90.68392322 Ry
     Harris-Foulkes estimate   =     -90.68392323 Ry
     estimated scf accuracy    <       0.00000002 Ry

     iteration #  8     ecut=    40.00 Ry     beta= 0.50
     Davidson diagonalization with overlap
     ethr =  5.03E-11,  avg # of iterations =  2.4

     total cpu time spent up to now is     2590.2 secs

     End of self-consistent calculation

          k = 0.0000 0.0000 0.0000 (  2285 PWs)   bands (ev):

   -13.9103 -11.6140  -9.5602  -8.8172  -6.8607  -4.8320  -3.3976   0.1201
     0.2416   0.4289   1.3170   1.8267   2.2309   3.5475   5.1632   7.6649
     7.7053  10.1754  11.3853  11.4380

          k = 0.0022-0.0070 0.7738 (  2273 PWs)   bands (ev):

   -12.7976 -10.5673  -8.7681  -7.8685  -6.2069  -4.0299  -3.2840  -3.1568
    -1.5162  -0.2548   0.0219   1.2985   1.5573   2.6440   4.3482   4.9239
     7.7243   8.6240   9.8357  11.8292

          k =-0.0044 0.0141-1.5477 (  2274 PWs)   bands (ev):

    -9.7949  -9.6703  -7.8476  -7.7235  -5.5742  -5.2019  -4.0982  -3.9640
    -2.4652  -2.3897  -1.2666  -1.2219   3.6848   3.7374   4.1838   4.2652
     5.6972   6.6222   9.7379   9.7732

          k = 0.2913-0.9849 0.0089 (  2302 PWs)   bands (ev):

   -12.9431 -11.9892 -11.6153  -7.9426  -7.2761  -2.1499  -1.4438  -1.4164
    -0.7757   0.3403   0.9305   1.8062   1.8562   2.2043   3.8715   7.8725
     9.0385   9.5910  11.2044  13.1776

          k = 0.2935-0.9919 0.7827 (  2282 PWs)   bands (ev):

   -11.8423 -10.9598 -10.5614  -7.2148  -6.5898  -2.9061  -2.2541  -1.6436
    -1.3476  -1.3271  -0.8723  -0.0347   1.2530   2.7377   4.3876   6.0744
     6.3100   8.6241  10.1979  12.2283

          k = 0.2869-0.9708-1.5388 (  2280 PWs)   bands (ev):

    -9.2613  -9.0963  -7.8216  -7.6506  -7.2940  -6.8509  -3.7120  -3.6622
    -2.3876  -2.3543  -0.0434   0.1034   3.3824   3.4800   4.5094   4.5595
     5.6387   6.4272   9.8243   9.8933

          k =-0.5331 0.1319-0.0000 (  2286 PWs)   bands (ev):

   -13.8661 -11.8798  -9.1766  -8.1527  -7.6414  -5.7949  -1.1649  -1.1345
     0.1309   0.3620   1.3040   1.8482   2.8795   3.4336   4.1859   7.6024
     9.0742   9.3880  10.8677  11.7948

          k =-0.5309 0.1249 0.7738 (  2279 PWs)   bands (ev):

   -12.7530 -10.8402  -8.2825  -7.4883  -6.8641  -4.8159  -3.2533  -1.6007
    -1.3870  -1.1803  -0.1190   0.9302   2.0456   2.5987   4.6285   6.0808
     6.2150   7.6669  11.1372  12.2791

          k =-0.5374 0.1460-1.5477 (  2292 PWs)   bands (ev):

    -9.7678  -9.6435  -7.9080  -7.8737  -5.5928  -5.1425  -3.4487  -3.3786
    -2.9041  -2.8948  -1.5786  -1.4785   3.7876   3.8016   4.5120   4.5271
     5.6807   6.6049   9.8524   9.8853

          k =-0.2418-0.8530 0.0088 (  2310 PWs)   bands (ev):

   -13.0707 -11.8075 -11.4027  -9.2118  -5.3402  -3.6052  -1.9205  -1.1586
    -0.2211   0.2070   0.9491   1.6101   1.9251   2.5628   4.5680   7.4045
     7.7903  11.3518  11.4113  12.4474

          k =-0.2396-0.8600 0.7827 (  2278 PWs)   bands (ev):

   -11.9740 -10.7728 -10.3453  -8.3898  -4.9555  -3.3298  -2.8523  -2.2861
    -1.1899  -0.9344  -0.2720  -0.1352   1.3634   2.3771   4.5895   5.0941
     7.6261   8.4014  10.3911  12.2351

          k =-0.2462-0.8389-1.5389 (  2286 PWs)   bands (ev):

    -9.2904  -9.1469  -7.7865  -7.5743  -7.1368  -6.7899  -4.3038  -4.2826
    -1.6870  -1.6485  -0.0850   0.0649   3.3999   3.4573   4.2290   4.2778
     5.4548   6.2216   9.9991  10.1397

     the Fermi energy is     6.1724 ev

!    total energy              =     -90.68392322 Ry
     Harris-Foulkes estimate   =     -90.68392323 Ry
     estimated scf accuracy    <          3.4E-09 Ry

     The total energy is the sum of the following terms:

     one-electron contribution =     -46.82340242 Ry
     hartree contribution      =      38.32292682 Ry
     xc contribution           =     -27.71019470 Ry
     ewald contribution        =     -54.47107497 Ry
     smearing contrib. (-TS)   =      -0.00217795 Ry

     convergence has been achieved in   8 iterations

     Forces acting on atoms (cartesian axes, Ry/au):

     atom    1 type  1   force =    -0.00122210    0.00000127   -0.00007342
     atom    2 type  1   force =     0.00021930    0.00003437    0.00019665
     atom    3 type  1   force =     0.00014620    0.00040031   -0.00006310
     atom    4 type  1   force =     0.00189860   -0.00446947   -0.00023756
     atom    5 type  1   force =    -0.00083967    0.00255740   -0.00033002
     atom    6 type  1   force =    -0.00169956    0.00180400    0.00047958
     atom    7 type  1   force =    -0.00121624    0.00099290   -0.00022555
     atom    8 type  1   force =     0.00271348   -0.00132078    0.00025340

     Total force =     0.007129     Total SCF correction =     0.000127


     Computing stress (Cartesian axis) and pressure

          total   stress  (Ry/bohr**3)                   (kbar)     P=       -1.58
  -0.00002209  -0.00000129  -0.00001208           -3.25       -0.19       -1.78
  -0.00000129  -0.00001935  -0.00000304           -0.19       -2.85       -0.45
  -0.00001208  -0.00000304   0.00000928           -1.78       -0.45        1.37


     number of scf cycles    =  42
     number of bfgs steps    =  41

     enthalpy old            =     -90.6838241800 Ry
     enthalpy new            =     -90.6838886602 Ry

     CASE: enthalpy_new < enthalpy_old

     new trust radius        =       0.0127248575 bohr
     new conv_thr            =       0.0000000100 Ry

     new unit-cell volume =    508.09649 a.u.^3 (    75.29213 Ang^3 )
     density =      2.11724 g/cm^3

CELL_PARAMETERS (bohr)
  14.711116001   4.374156260  -0.006690958
   1.979722387   7.947554164   0.066562027
   0.009411054   0.045146293   4.693778832

ATOMIC_POSITIONS (crystal)
C            -0.0423024433        0.8743081013        0.0234998316
C             0.0535973123        0.6279128486        0.5278181259
C             0.5637009785        0.1920415389        1.0267371635
C             0.0115645213        0.3225378813        0.5361957078
C             0.4482044445        0.2939366490        0.5264538570
C            -0.0021344325        0.1818026006        0.0146192964
C             0.7514860870        1.0273031071        0.0266080323
C             0.2601345323        0.4683082732        0.5256519856



     Writing output data file ./pp.save/
     NEW-OLD atomic charge density approx. for the potential
     extrapolated charge   31.97702, renormalised to   32.00000

     total cpu time spent up to now is     2590.7 secs

     Self-consistent Calculation

     iteration #  1     ecut=    40.00 Ry     beta= 0.50
     Davidson diagonalization with overlap
