
     Program PWSCF v.6.5 starts on 10Jul2022 at  0:15:53 

     This program is part of the open-source Quantum ESPRESSO suite
     for quantum simulation of materials; please cite
         "P. Giannozzi et al., J. Phys.:Condens. Matter 21 395502 (2009);
         "P. Giannozzi et al., J. Phys.:Condens. Matter 29 465901 (2017);
          URL http://www.quantum-espresso.org", 
     in publications or presentations arising from this work. More details at
     http://www.quantum-espresso.org/quote

     Parallel version (MPI), running on    96 processors

     MPI processes distributed on     2 nodes
     R & G space division:  proc/nbgrp/npool/nimage =      96
     Waiting for input...
     Reading input from standard input
     Message from routine read_cards :
     DEPRECATED: no units specified in CELL_PARAMETERS card

     Current dimensions of program PWSCF are:
     Max number of different atomic species (ntypx) = 10
     Max number of k-points (npk) =  40000
     Max angular momentum in pseudopotentials (lmaxx) =  3

     Subspace diagonalization in iterative solution of the eigenvalue problem:
     one sub-group per band group will be used
     scalapack distributed-memory algorithm (size of sub-group:  9*  9 procs)

     Found symmetry operation: I + ( -0.5000  0.5000  0.0000)
     This is a supercell, fractional translations are disabled
 
     Parallelization info
     --------------------
     sticks:   dense  smooth     PW     G-vecs:    dense   smooth      PW
     Min          10      10      3                  128      128      23
     Max          12      12      4                  131      131      26
     Sum        1033    1033    333                12371    12371    2311
 


     bravais-lattice index     =            0
     lattice parameter (alat)  =       8.9814  a.u.
     unit-cell volume          =     362.2448 (a.u.)^3
     number of atoms/cell      =            8
     number of atomic types    =            1
     number of electrons       =        32.00
     number of Kohn-Sham states=           20
     kinetic-energy cutoff     =      40.0000  Ry
     charge density cutoff     =     160.0000  Ry
     convergence threshold     =      1.0E-06
     mixing beta               =       0.5000
     number of iterations used =            8  plain     mixing
     Exchange-correlation=  SLA  PW   PBE  PBE
                           (   1   4   3   4   0   0   0)
     nstep                     =          250


     celldm(1)=   8.981400  celldm(2)=   0.000000  celldm(3)=   0.000000
     celldm(4)=   0.000000  celldm(5)=   0.000000  celldm(6)=   0.000000

     crystal axes: (cart. coord. in units of alat)
               a(1) = (   1.000000   0.000000   0.000000 )  
               a(2) = (   0.000000   1.000000   0.000000 )  
               a(3) = (   0.000000   0.000000   0.500000 )  

     reciprocal axes: (cart. coord. in units 2 pi/alat)
               b(1) = (  1.000000  0.000000  0.000000 )  
               b(2) = (  0.000000  1.000000  0.000000 )  
               b(3) = (  0.000000  0.000000  2.000000 )  


     PseudoPot. # 1 for C  read from file:
     ./C.pbe-van_bm.upf
     MD5 check sum: 1a69bf6b8db32088f5b2163dbdb77a27
     Pseudo is Ultrasoft, Zval =  4.0
     Generated by new atomic code, or converted to UPF format
     Using radial grid of  721 points,  4 beta functions with: 
                l(1) =   0
                l(2) =   0
                l(3) =   1
                l(4) =   1
     Q(r) pseudized with  8 coefficients,  rinner =    0.800   0.800   0.800


     atomic species   valence    mass     pseudopotential
        C              4.00    12.00000     C ( 1.00)

     No symmetry found



   Cartesian axes

     site n.     atom                  positions (alat units)
         1           C   tau(   1) = (   0.2500000   0.7500000   0.2500000  )
         2           C   tau(   2) = (   0.7500000   0.2500000   0.2500000  )
         3           C   tau(   3) = (   0.0000000   0.5000000   0.0000000  )
         4           C   tau(   4) = (   0.5000000   0.0000000   0.0000000  )
         5           C   tau(   5) = (   0.7500000   0.7500000   0.2500000  )
         6           C   tau(   6) = (   0.2500000   0.2500000   0.2500000  )
         7           C   tau(   7) = (   0.0000000   0.0000000   0.0000000  )
         8           C   tau(   8) = (   0.5000000   0.5000000   0.0000000  )

     number of k points=    12  Marzari-Vanderbilt smearing, width (Ry)=  0.0200
                       cart. coord. in units 2pi/alat
        k(    1) = (   0.0000000   0.0000000   0.0000000), wk =   0.1250000
        k(    2) = (   0.0000000   0.0000000   0.5000000), wk =   0.2500000
        k(    3) = (   0.0000000   0.0000000  -1.0000000), wk =   0.1250000
        k(    4) = (   0.0000000  -0.5000000   0.0000000), wk =   0.1250000
        k(    5) = (   0.0000000  -0.5000000   0.5000000), wk =   0.2500000
        k(    6) = (   0.0000000  -0.5000000  -1.0000000), wk =   0.1250000
        k(    7) = (  -0.5000000   0.0000000   0.0000000), wk =   0.1250000
        k(    8) = (  -0.5000000   0.0000000   0.5000000), wk =   0.2500000
        k(    9) = (  -0.5000000   0.0000000  -1.0000000), wk =   0.1250000
        k(   10) = (  -0.5000000  -0.5000000   0.0000000), wk =   0.1250000
        k(   11) = (  -0.5000000  -0.5000000   0.5000000), wk =   0.2500000
        k(   12) = (  -0.5000000  -0.5000000  -1.0000000), wk =   0.1250000

     Dense  grid:    12371 G-vectors     FFT dimensions: (  40,  40,  20)

     Estimated max dynamical RAM per process >       1.62 MB

     Estimated total dynamical RAM >     155.74 MB

     Initial potential from superposition of free atoms

     starting charge   31.99968, renormalised to   32.00000
     Starting wfcs are   32 randomized atomic wfcs

     total cpu time spent up to now is        0.6 secs

     Self-consistent Calculation

     iteration #  1     ecut=    40.00 Ry     beta= 0.50
     Davidson diagonalization with overlap
     ethr =  1.00E-02,  avg # of iterations =  2.0

     Threshold (ethr) on eigenvalues was too large:
     Diagonalizing with lowered threshold

     Davidson diagonalization with overlap
     ethr =  2.15E-05,  avg # of iterations =  3.2

     total cpu time spent up to now is        2.0 secs

     total energy              =     -88.62398091 Ry
     Harris-Foulkes estimate   =     -88.62392922 Ry
     estimated scf accuracy    <       0.00678292 Ry

     iteration #  2     ecut=    40.00 Ry     beta= 0.50
     Davidson diagonalization with overlap
     ethr =  2.12E-05,  avg # of iterations =  1.0

     total cpu time spent up to now is        2.4 secs

     total energy              =     -88.62433988 Ry
     Harris-Foulkes estimate   =     -88.62423073 Ry
     estimated scf accuracy    <       0.00153612 Ry

     iteration #  3     ecut=    40.00 Ry     beta= 0.50
     Davidson diagonalization with overlap
     ethr =  4.80E-06,  avg # of iterations =  5.1

     total cpu time spent up to now is        3.4 secs

     total energy              =     -88.62432363 Ry
     Harris-Foulkes estimate   =     -88.62503690 Ry
     estimated scf accuracy    <       0.00436136 Ry

     iteration #  4     ecut=    40.00 Ry     beta= 0.50
     Davidson diagonalization with overlap
     ethr =  4.80E-06,  avg # of iterations =  2.6

     total cpu time spent up to now is        4.0 secs

     total energy              =     -88.62475252 Ry
     Harris-Foulkes estimate   =     -88.62551622 Ry
     estimated scf accuracy    <       0.01172712 Ry

     iteration #  5     ecut=    40.00 Ry     beta= 0.50
     Davidson diagonalization with overlap
     ethr =  4.80E-06,  avg # of iterations =  1.1

     total cpu time spent up to now is        4.4 secs

     total energy              =     -88.62372656 Ry
     Harris-Foulkes estimate   =     -88.62480382 Ry
     estimated scf accuracy    <       0.00908335 Ry

     iteration #  6     ecut=    40.00 Ry     beta= 0.50
     Davidson diagonalization with overlap
     ethr =  4.80E-06,  avg # of iterations =  2.5

     total cpu time spent up to now is        4.9 secs

     total energy              =     -88.62340488 Ry
     Harris-Foulkes estimate   =     -88.62390096 Ry
     estimated scf accuracy    <       0.00413454 Ry

     iteration #  7     ecut=    40.00 Ry     beta= 0.50
     Davidson diagonalization with overlap
     ethr =  4.80E-06,  avg # of iterations =  2.0

     total cpu time spent up to now is        5.4 secs

     total energy              =     -88.62320248 Ry
     Harris-Foulkes estimate   =     -88.62349338 Ry
     estimated scf accuracy    <       0.00208870 Ry

     iteration #  8     ecut=    40.00 Ry     beta= 0.50
     Davidson diagonalization with overlap
     ethr =  4.80E-06,  avg # of iterations =  2.3

     total cpu time spent up to now is        6.0 secs

     total energy              =     -88.62501736 Ry
     Harris-Foulkes estimate   =     -88.62563533 Ry
     estimated scf accuracy    <       0.00824383 Ry

     iteration #  9     ecut=    40.00 Ry     beta= 0.50
     Davidson diagonalization with overlap
     ethr =  4.80E-06,  avg # of iterations =  1.0

     total cpu time spent up to now is        6.3 secs

     total energy              =     -88.62577531 Ry
     Harris-Foulkes estimate   =     -88.62505464 Ry
     estimated scf accuracy    <       0.00632741 Ry

     iteration # 10     ecut=    40.00 Ry     beta= 0.50
     Davidson diagonalization with overlap
     ethr =  4.80E-06,  avg # of iterations =  1.2

     total cpu time spent up to now is        6.8 secs

     total energy              =     -88.62410491 Ry
     Harris-Foulkes estimate   =     -88.62582395 Ry
     estimated scf accuracy    <       0.00898426 Ry

     iteration # 11     ecut=    40.00 Ry     beta= 0.50
     Davidson diagonalization with overlap
     ethr =  4.80E-06,  avg # of iterations =  4.0

     total cpu time spent up to now is        7.6 secs

     total energy              =     -88.62629017 Ry
     Harris-Foulkes estimate   =     -88.62646491 Ry
     estimated scf accuracy    <       0.01697817 Ry

     iteration # 12     ecut=    40.00 Ry     beta= 0.50
     Davidson diagonalization with overlap
     ethr =  4.80E-06,  avg # of iterations =  1.0

     total cpu time spent up to now is        8.0 secs

     total energy              =     -88.62616169 Ry
     Harris-Foulkes estimate   =     -88.62630038 Ry
     estimated scf accuracy    <       0.01643311 Ry

     iteration # 13     ecut=    40.00 Ry     beta= 0.50
     Davidson diagonalization with overlap
     ethr =  4.80E-06,  avg # of iterations =  1.0

     total cpu time spent up to now is        8.4 secs

     total energy              =     -88.62605881 Ry
     Harris-Foulkes estimate   =     -88.62616797 Ry
     estimated scf accuracy    <       0.01579389 Ry

     iteration # 14     ecut=    40.00 Ry     beta= 0.50
     Davidson diagonalization with overlap
     ethr =  4.80E-06,  avg # of iterations =  1.0

     total cpu time spent up to now is        8.8 secs

     total energy              =     -88.62657944 Ry
     Harris-Foulkes estimate   =     -88.62606280 Ry
     estimated scf accuracy    <       0.01529612 Ry

     iteration # 15     ecut=    40.00 Ry     beta= 0.50
     Davidson diagonalization with overlap
     ethr =  4.80E-06,  avg # of iterations =  1.2

     total cpu time spent up to now is        9.3 secs

     total energy              =     -88.62679406 Ry
     Harris-Foulkes estimate   =     -88.62664378 Ry
     estimated scf accuracy    <       0.01775717 Ry

     iteration # 16     ecut=    40.00 Ry     beta= 0.50
     Davidson diagonalization with overlap
     ethr =  4.80E-06,  avg # of iterations =  1.0

     total cpu time spent up to now is        9.7 secs

     total energy              =     -88.62201633 Ry
     Harris-Foulkes estimate   =     -88.62680253 Ry
     estimated scf accuracy    <       0.01833923 Ry

     iteration # 17     ecut=    40.00 Ry     beta= 0.50
     Davidson diagonalization with overlap
     ethr =  4.80E-06,  avg # of iterations =  5.1

     total cpu time spent up to now is       10.8 secs

     total energy              =     -88.62508745 Ry
     Harris-Foulkes estimate   =     -88.62556603 Ry
     estimated scf accuracy    <       0.00722771 Ry

     iteration # 18     ecut=    40.00 Ry     beta= 0.50
     Davidson diagonalization with overlap
     ethr =  4.80E-06,  avg # of iterations =  1.5

     total cpu time spent up to now is       11.2 secs

     total energy              =     -88.62553107 Ry
     Harris-Foulkes estimate   =     -88.62515605 Ry
     estimated scf accuracy    <       0.00549945 Ry

     iteration # 19     ecut=    40.00 Ry     beta= 0.50
     Davidson diagonalization with overlap
     ethr =  4.80E-06,  avg # of iterations =  1.4

     total cpu time spent up to now is       11.7 secs

     total energy              =     -88.62243874 Ry
     Harris-Foulkes estimate   =     -88.62562151 Ry
     estimated scf accuracy    <       0.00712899 Ry

     iteration # 20     ecut=    40.00 Ry     beta= 0.50
     Davidson diagonalization with overlap
     ethr =  4.80E-06,  avg # of iterations =  5.3

     total cpu time spent up to now is       13.0 secs

     total energy              =     -88.62303095 Ry
     Harris-Foulkes estimate   =     -88.63695034 Ry
     estimated scf accuracy    <       0.06888744 Ry

     iteration # 21     ecut=    40.00 Ry     beta= 0.50
     Davidson diagonalization with overlap
     ethr =  4.80E-06,  avg # of iterations =  3.8

     total cpu time spent up to now is       14.0 secs

     total energy              =     -88.62429282 Ry
     Harris-Foulkes estimate   =     -88.62630085 Ry
     estimated scf accuracy    <       0.01671724 Ry

     iteration # 22     ecut=    40.00 Ry     beta= 0.50
     Davidson diagonalization with overlap
     ethr =  4.80E-06,  avg # of iterations =  2.7

     total cpu time spent up to now is       14.6 secs

     total energy              =     -88.62409655 Ry
     Harris-Foulkes estimate   =     -88.62456551 Ry
     estimated scf accuracy    <       0.00789350 Ry

     iteration # 23     ecut=    40.00 Ry     beta= 0.50
     Davidson diagonalization with overlap
     ethr =  4.80E-06,  avg # of iterations =  1.0

     total cpu time spent up to now is       15.1 secs

     total energy              =     -88.62320418 Ry
     Harris-Foulkes estimate   =     -88.62412893 Ry
     estimated scf accuracy    <       0.00602093 Ry

     iteration # 24     ecut=    40.00 Ry     beta= 0.50
     Davidson diagonalization with overlap
     ethr =  4.80E-06,  avg # of iterations =  2.7

     total cpu time spent up to now is       15.7 secs

     total energy              =     -88.62330554 Ry
     Harris-Foulkes estimate   =     -88.62341078 Ry
     estimated scf accuracy    <       0.00174190 Ry

     iteration # 25     ecut=    40.00 Ry     beta= 0.50
     Davidson diagonalization with overlap
     ethr =  4.80E-06,  avg # of iterations =  1.0

     total cpu time spent up to now is       16.1 secs

     total energy              =     -88.62280260 Ry
     Harris-Foulkes estimate   =     -88.62331680 Ry
     estimated scf accuracy    <       0.00132931 Ry

     iteration # 26     ecut=    40.00 Ry     beta= 0.50
     Davidson diagonalization with overlap
     ethr =  4.15E-06,  avg # of iterations =  3.2

     total cpu time spent up to now is       16.9 secs

     total energy              =     -88.62309802 Ry
     Harris-Foulkes estimate   =     -88.62313041 Ry
     estimated scf accuracy    <       0.00014277 Ry

     iteration # 27     ecut=    40.00 Ry     beta= 0.50
     Davidson diagonalization with overlap
     ethr =  4.46E-07,  avg # of iterations =  2.2

     total cpu time spent up to now is       17.5 secs

     total energy              =     -88.62310897 Ry
     Harris-Foulkes estimate   =     -88.62311295 Ry
     estimated scf accuracy    <       0.00003605 Ry

     iteration # 28     ecut=    40.00 Ry     beta= 0.50
     Davidson diagonalization with overlap
     ethr =  1.13E-07,  avg # of iterations =  3.1

     total cpu time spent up to now is       18.3 secs

     total energy              =     -88.62688857 Ry
     Harris-Foulkes estimate   =     -88.62957375 Ry
     estimated scf accuracy    <       0.03316807 Ry

     iteration # 29     ecut=    40.00 Ry     beta= 0.50
     Davidson diagonalization with overlap
     ethr =  1.13E-07,  avg # of iterations =  3.8

     total cpu time spent up to now is       19.3 secs

     total energy              =     -88.62651773 Ry
     Harris-Foulkes estimate   =     -88.62710583 Ry
     estimated scf accuracy    <       0.02067989 Ry

     iteration # 30     ecut=    40.00 Ry     beta= 0.50
     Davidson diagonalization with overlap
     ethr =  1.13E-07,  avg # of iterations =  2.8

     total cpu time spent up to now is       20.1 secs

     total energy              =     -88.62589155 Ry
     Harris-Foulkes estimate   =     -88.62653361 Ry
     estimated scf accuracy    <       0.01780722 Ry

     iteration # 31     ecut=    40.00 Ry     beta= 0.50
     Davidson diagonalization with overlap
     ethr =  1.13E-07,  avg # of iterations =  3.1

     total cpu time spent up to now is       22.0 secs

     total energy              =     -88.62437243 Ry
     Harris-Foulkes estimate   =     -88.62591413 Ry
     estimated scf accuracy    <       0.01465329 Ry

     iteration # 32     ecut=    40.00 Ry     beta= 0.50
     Davidson diagonalization with overlap
     ethr =  1.13E-07,  avg # of iterations =  3.8

     total cpu time spent up to now is       23.1 secs

     total energy              =     -88.62421492 Ry
     Harris-Foulkes estimate   =     -88.62453806 Ry
     estimated scf accuracy    <       0.00758288 Ry

     iteration # 33     ecut=    40.00 Ry     beta= 0.50
     Davidson diagonalization with overlap
     ethr =  1.13E-07,  avg # of iterations =  2.6

     total cpu time spent up to now is       23.9 secs

     total energy              =     -88.62494872 Ry
     Harris-Foulkes estimate   =     -88.62422868 Ry
     estimated scf accuracy    <       0.00597936 Ry

     iteration # 34     ecut=    40.00 Ry     beta= 0.50
     Davidson diagonalization with overlap
     ethr =  1.13E-07,  avg # of iterations =  3.6

     total cpu time spent up to now is       25.0 secs

     total energy              =     -88.62364690 Ry
     Harris-Foulkes estimate   =     -88.62502623 Ry
     estimated scf accuracy    <       0.01009939 Ry

     iteration # 35     ecut=    40.00 Ry     beta= 0.50
     Davidson diagonalization with overlap
     ethr =  1.13E-07,  avg # of iterations =  3.8

     total cpu time spent up to now is       26.1 secs

     total energy              =     -88.62296912 Ry
     Harris-Foulkes estimate   =     -88.62384775 Ry
     estimated scf accuracy    <       0.00397075 Ry

     iteration # 36     ecut=    40.00 Ry     beta= 0.50
     Davidson diagonalization with overlap
     ethr =  1.13E-07,  avg # of iterations =  3.9

     total cpu time spent up to now is       27.4 secs

     total energy              =     -88.62302344 Ry
     Harris-Foulkes estimate   =     -88.62319937 Ry
     estimated scf accuracy    <       0.00050371 Ry

     iteration # 37     ecut=    40.00 Ry     beta= 0.50
     Davidson diagonalization with overlap
     ethr =  1.13E-07,  avg # of iterations =  4.0

     total cpu time spent up to now is       28.6 secs

     total energy              =     -88.62310869 Ry
     Harris-Foulkes estimate   =     -88.62310805 Ry
     estimated scf accuracy    <       0.00000629 Ry

     iteration # 38     ecut=    40.00 Ry     beta= 0.50
     Davidson diagonalization with overlap
     ethr =  1.97E-08,  avg # of iterations =  1.2

     total cpu time spent up to now is       29.2 secs

     total energy              =     -88.62311138 Ry
     Harris-Foulkes estimate   =     -88.62310884 Ry
     estimated scf accuracy    <       0.00000929 Ry

     iteration # 39     ecut=    40.00 Ry     beta= 0.50
     Davidson diagonalization with overlap
     ethr =  1.97E-08,  avg # of iterations =  2.3

     total cpu time spent up to now is       30.0 secs

     total energy              =     -88.62310447 Ry
     Harris-Foulkes estimate   =     -88.62311213 Ry
     estimated scf accuracy    <       0.00002779 Ry

     iteration # 40     ecut=    40.00 Ry     beta= 0.50
     Davidson diagonalization with overlap
     ethr =  1.97E-08,  avg # of iterations =  3.0

     total cpu time spent up to now is       31.1 secs

     End of self-consistent calculation

          k = 0.0000 0.0000 0.0000 (  1565 PWs)   bands (ev):

    -8.0500  -2.6003  -2.6003  -2.4806  -2.4806   2.7045   2.7060   2.9208
     2.9218   9.9858   9.9870   9.9908  12.0361  14.5332  14.5333  14.6037
    14.6038  14.6319  14.6320  14.7245

          k = 0.0000 0.0000 0.5000 (  1541 PWs)   bands (ev):

    -6.6576  -1.2392  -1.2392  -1.1176  -1.1175   3.9410   4.0485   4.0596
     4.1782   4.1797   8.8919   8.8920   9.0363   9.0363  11.2284  11.2305
    12.6254  12.6269  14.0684  14.7989

          k = 0.0000 0.0000-1.0000 (  1506 PWs)   bands (ev):

    -2.5406  -2.5403   2.6668   2.6668   2.7568   2.7569   2.8325   2.8326
     3.0013   3.0013   6.5904   6.5904   8.4620   8.4622   8.4633   8.4635
     8.4763   8.4763  14.6223  14.6226

          k = 0.0000-0.5000 0.0000 (  1550 PWs)   bands (ev):

    -6.6580  -6.6579  -1.1795  -1.1795  -1.1780  -1.1779   3.9531   3.9531
     8.9599   8.9600   8.9623   8.9623  11.2304  11.2305  11.2339  11.2340
    14.0598  14.0599  15.2415  15.2416

          k = 0.0000-0.5000 0.5000 (  1568 PWs)   bands (ev):

    -5.2717  -5.2716   0.1733   0.1733   0.1749   0.1749   5.1156   5.1156
     5.3986   5.3986   9.5099   9.5099   9.5101   9.5101  10.8839  10.8839
    10.8849  10.8849  12.3616  12.3617

          k = 0.0000-0.5000-1.0000 (  1532 PWs)   bands (ev):

    -1.1790  -1.1789  -1.1787  -1.1786   4.0435   4.0435   4.0436   4.0437
     4.1855   4.1855   4.1856   4.1856   8.9642   8.9642   8.9645   8.9645
    12.6176  12.6176  12.6177  12.6178

          k =-0.5000 0.0000 0.0000 (  1550 PWs)   bands (ev):

    -6.6580  -6.6578  -1.1795  -1.1795  -1.1780  -1.1779   3.9530   3.9531
     8.9599   8.9600   8.9623   8.9623  11.2303  11.2305  11.2338  11.2340
    14.0598  14.0599  15.2415  15.2416

          k =-0.5000 0.0000 0.5000 (  1568 PWs)   bands (ev):

    -5.2718  -5.2716   0.1733   0.1733   0.1749   0.1749   5.1155   5.1156
     5.3986   5.3986   9.5099   9.5099   9.5101   9.5101  10.8839  10.8839
    10.8849  10.8849  12.3616  12.3618

          k =-0.5000 0.0000-1.0000 (  1532 PWs)   bands (ev):

    -1.1791  -1.1789  -1.1787  -1.1786   4.0434   4.0436   4.0437   4.0437
     4.1854   4.1855   4.1856   4.1857   8.9642   8.9643   8.9645   8.9645
    12.6175  12.6177  12.6177  12.6177

          k =-0.5000-0.5000 0.0000 (  1568 PWs)   bands (ev):

    -5.3283  -5.2717  -5.2716  -5.2139   5.0678   5.1194   5.1194   5.1697
     5.3051   5.3936   5.3937   5.4817  12.2750  12.3661  12.3661  12.4606
    14.2510  14.2914  14.2914  14.3420

          k =-0.5000-0.5000 0.5000 (  1556 PWs)   bands (ev):

    -3.9493  -3.8916  -3.8915  -3.8326   5.9464   6.0292   6.0292   6.1108
     6.7252   6.7898   6.8150   6.8151   6.8218   6.8219   6.8558   6.9047
    13.5738  13.5849  13.5850  13.5925

          k =-0.5000-0.5000-1.0000 (  1568 PWs)   bands (ev):

     0.1121   0.1124   0.1567   0.1568   0.1915   0.1915   0.2369   0.2372
     9.4665   9.4668   9.5064   9.5065   9.5232   9.5233   9.5614   9.5617
    10.9453  10.9453  10.9745  10.9746

     the Fermi energy is    11.2274 ev

!    total energy              =     -88.62310655 Ry
     Harris-Foulkes estimate   =     -88.62310712 Ry
     estimated scf accuracy    <       0.00000076 Ry

     The total energy is the sum of the following terms:

     one-electron contribution =      38.25589589 Ry
     hartree contribution      =       2.69706097 Ry
     xc contribution           =     -25.84809621 Ry
     ewald contribution        =    -103.73034974 Ry
     smearing contrib. (-TS)   =       0.00238254 Ry

     convergence has been achieved in  40 iterations

     Forces acting on atoms (cartesian axes, Ry/au):

     atom    1 type  1   force =    -0.00000954    0.00001688    0.00026187
     atom    2 type  1   force =     0.00002947   -0.00001369    0.00026202
     atom    3 type  1   force =     0.00001502   -0.00002728   -0.00025529
     atom    4 type  1   force =    -0.00003277    0.00000437   -0.00025421
     atom    5 type  1   force =     0.00001161    0.00000962    0.00012738
     atom    6 type  1   force =    -0.00003222   -0.00001344    0.00012698
     atom    7 type  1   force =     0.00003577    0.00003001   -0.00013438
     atom    8 type  1   force =    -0.00001734   -0.00000647   -0.00013438

     Total force =     0.000586     Total SCF correction =     0.000434
     SCF correction compared to forces is large: reduce conv_thr to get better values


     Computing stress (Cartesian axis) and pressure

          total   stress  (Ry/bohr**3)                   (kbar)     P=      -54.74
  -0.00029891   0.00000202   0.00000007          -43.97        0.30        0.01
   0.00000202  -0.00029891   0.00000007            0.30      -43.97        0.01
   0.00000007   0.00000007  -0.00051855            0.01        0.01      -76.28


     BFGS Geometry Optimization

     number of scf cycles    =   1
     number of bfgs steps    =   0

     enthalpy new            =     -88.6230819207 Ry

     new trust radius        =       0.0493535489 bohr
     new conv_thr            =       0.0000010000 Ry

     new unit-cell volume =    352.22316 a.u.^3 (    52.19409 Ang^3 )
     density =      3.05421 g/cm^3

CELL_PARAMETERS (bohr)
   8.914269714   0.000454479   0.000015161
   0.000454479   8.914269038   0.000016326
   0.000007581   0.000008163   4.432476089

ATOMIC_POSITIONS (crystal)
C             0.2499989381        0.7500018795        0.5000583149
C             0.7500032807        0.2499984760        0.5000583471
C             0.0000016728        0.4999969626       -0.0000568479
C             0.4999963516        0.0000004867       -0.0000566084
C             0.7500012931        0.7500010711        0.5000283657
C             0.2499964123        0.2499985030        0.5000282759
C             0.0000039822        0.0000033415       -0.0000299240
C             0.4999980692        0.4999992797       -0.0000299234



     Writing output data file ./pp.save/
     NEW-OLD atomic charge density approx. for the potential
     extrapolated charge   31.08953, renormalised to   32.00000

     total cpu time spent up to now is       31.3 secs

     Self-consistent Calculation

     iteration #  1     ecut=    40.00 Ry     beta= 0.50
     Davidson diagonalization with overlap
     ethr =  1.00E-06,  avg # of iterations =  4.0

     total cpu time spent up to now is       32.9 secs

     total energy              =     -88.62460582 Ry
     Harris-Foulkes estimate   =     -87.80961796 Ry
     estimated scf accuracy    <       0.00097436 Ry

     iteration #  2     ecut=    40.00 Ry     beta= 0.50
     Davidson diagonalization with overlap
     ethr =  3.04E-06,  avg # of iterations =  2.2

     total cpu time spent up to now is       33.9 secs

     total energy              =     -88.62555587 Ry
     Harris-Foulkes estimate   =     -88.62557115 Ry
     estimated scf accuracy    <       0.00006697 Ry

     iteration #  3     ecut=    40.00 Ry     beta= 0.50
     Davidson diagonalization with overlap
     ethr =  2.09E-07,  avg # of iterations =  1.9

     total cpu time spent up to now is       34.7 secs

     total energy              =     -88.62555992 Ry
     Harris-Foulkes estimate   =     -88.62556376 Ry
     estimated scf accuracy    <       0.00001749 Ry

     iteration #  4     ecut=    40.00 Ry     beta= 0.50
     Davidson diagonalization with overlap
     ethr =  5.46E-08,  avg # of iterations =  3.3

     total cpu time spent up to now is       35.9 secs

     total energy              =     -88.63195614 Ry
     Harris-Foulkes estimate   =     -88.63215413 Ry
     estimated scf accuracy    <       0.03222682 Ry

     iteration #  5     ecut=    40.00 Ry     beta= 0.50
     Davidson diagonalization with overlap
     ethr =  5.46E-08,  avg # of iterations =  1.8

     total cpu time spent up to now is       36.8 secs

     total energy              =     -88.63133552 Ry
     Harris-Foulkes estimate   =     -88.63195735 Ry
     estimated scf accuracy    <       0.03145480 Ry

     iteration #  6     ecut=    40.00 Ry     beta= 0.50
     Davidson diagonalization with overlap
     ethr =  5.46E-08,  avg # of iterations =  3.5

     total cpu time spent up to now is       38.1 secs

     total energy              =     -88.63184930 Ry
     Harris-Foulkes estimate   =     -88.63135048 Ry
     estimated scf accuracy    <       0.02845020 Ry

     iteration #  7     ecut=    40.00 Ry     beta= 0.50
     Davidson diagonalization with overlap
     ethr =  5.46E-08,  avg # of iterations =  2.7

     total cpu time spent up to now is       39.4 secs

     total energy              =     -88.63171839 Ry
     Harris-Foulkes estimate   =     -88.63185686 Ry
     estimated scf accuracy    <       0.03084488 Ry

     iteration #  8     ecut=    40.00 Ry     beta= 0.50
     Davidson diagonalization with overlap
     ethr =  5.46E-08,  avg # of iterations =  1.1

     total cpu time spent up to now is       40.1 secs

     total energy              =     -88.63009776 Ry
     Harris-Foulkes estimate   =     -88.63171885 Ry
     estimated scf accuracy    <       0.03032758 Ry

     iteration #  9     ecut=    40.00 Ry     beta= 0.50
     Davidson diagonalization with overlap
     ethr =  5.46E-08,  avg # of iterations =  3.8

     total cpu time spent up to now is       41.7 secs

     total energy              =     -88.62590810 Ry
     Harris-Foulkes estimate   =     -88.63017957 Ry
     estimated scf accuracy    <       0.02283846 Ry

     iteration # 10     ecut=    40.00 Ry     beta= 0.50
     Davidson diagonalization with overlap
     ethr =  5.46E-08,  avg # of iterations =  5.3

     total cpu time spent up to now is       44.1 secs

     total energy              =     -88.62695736 Ry
     Harris-Foulkes estimate   =     -88.62701759 Ry
     estimated scf accuracy    <       0.00270982 Ry

     iteration # 11     ecut=    40.00 Ry     beta= 0.50
     Davidson diagonalization with overlap
     ethr =  5.46E-08,  avg # of iterations =  2.5

     total cpu time spent up to now is       45.4 secs

     total energy              =     -88.62669136 Ry
     Harris-Foulkes estimate   =     -88.62696145 Ry
     estimated scf accuracy    <       0.00242776 Ry

     iteration # 12     ecut=    40.00 Ry     beta= 0.50
     Davidson diagonalization with overlap
     c_bands:  4 eigenvalues not converged
     ethr =  5.46E-08,  avg # of iterations =  5.4

     total cpu time spent up to now is       47.7 secs

     total energy              =     -88.62564552 Ry
     Harris-Foulkes estimate   =     -88.62972953 Ry
     estimated scf accuracy    <       0.02072828 Ry

     iteration # 13     ecut=    40.00 Ry     beta= 0.50
     Davidson diagonalization with overlap
     c_bands:  3 eigenvalues not converged
     ethr =  5.46E-08,  avg # of iterations =  5.9

     total cpu time spent up to now is       50.6 secs

     total energy              =     -88.62735729 Ry
     Harris-Foulkes estimate   =     -88.62815786 Ry
     estimated scf accuracy    <       0.01297401 Ry

     iteration # 14     ecut=    40.00 Ry     beta= 0.50
     Davidson diagonalization with overlap
     ethr =  5.46E-08,  avg # of iterations =  3.8

     total cpu time spent up to now is       52.4 secs

     total energy              =     -88.62634544 Ry
     Harris-Foulkes estimate   =     -88.62740429 Ry
     estimated scf accuracy    <       0.00927604 Ry

     iteration # 15     ecut=    40.00 Ry     beta= 0.50
     Davidson diagonalization with overlap
     ethr =  5.46E-08,  avg # of iterations =  5.1

     total cpu time spent up to now is       55.0 secs

     total energy              =     -88.62737899 Ry
     Harris-Foulkes estimate   =     -88.62736048 Ry
     estimated scf accuracy    <       0.00184539 Ry

     iteration # 16     ecut=    40.00 Ry     beta= 0.50
     Davidson diagonalization with overlap
     ethr =  5.46E-08,  avg # of iterations =  1.3

     total cpu time spent up to now is       56.0 secs

     total energy              =     -88.62702796 Ry
     Harris-Foulkes estimate   =     -88.62737960 Ry
     estimated scf accuracy    <       0.00192747 Ry

     iteration # 17     ecut=    40.00 Ry     beta= 0.50
     Davidson diagonalization with overlap
     ethr =  5.46E-08,  avg # of iterations =  4.3

     total cpu time spent up to now is       58.5 secs

     total energy              =     -88.62716859 Ry
     Harris-Foulkes estimate   =     -88.62731086 Ry
     estimated scf accuracy    <       0.00160121 Ry

     iteration # 18     ecut=    40.00 Ry     beta= 0.50
     Davidson diagonalization with overlap
     ethr =  5.46E-08,  avg # of iterations =  3.9

     total cpu time spent up to now is       60.8 secs

     total energy              =     -88.62720188 Ry
     Harris-Foulkes estimate   =     -88.62729781 Ry
     estimated scf accuracy    <       0.00150798 Ry

     iteration # 19     ecut=    40.00 Ry     beta= 0.50
     Davidson diagonalization with overlap
     ethr =  5.46E-08,  avg # of iterations =  3.8

     total cpu time spent up to now is       63.0 secs

     total energy              =     -88.62734871 Ry
     Harris-Foulkes estimate   =     -88.62729807 Ry
     estimated scf accuracy    <       0.00152358 Ry

     iteration # 20     ecut=    40.00 Ry     beta= 0.50
     Davidson diagonalization with overlap
     ethr =  5.46E-08,  avg # of iterations =  3.4

     total cpu time spent up to now is       65.0 secs

     total energy              =     -88.62744556 Ry
     Harris-Foulkes estimate   =     -88.62735924 Ry
     estimated scf accuracy    <       0.00182252 Ry

     iteration # 21     ecut=    40.00 Ry     beta= 0.50
     Davidson diagonalization with overlap
     ethr =  5.46E-08,  avg # of iterations =  3.3

     total cpu time spent up to now is       67.0 secs

     total energy              =     -88.62671819 Ry
     Harris-Foulkes estimate   =     -88.62745705 Ry
     estimated scf accuracy    <       0.00229928 Ry

     iteration # 22     ecut=    40.00 Ry     beta= 0.50
     Davidson diagonalization with overlap
     ethr =  5.46E-08,  avg # of iterations =  5.8

     total cpu time spent up to now is       70.8 secs

     total energy              =     -88.62860135 Ry
     Harris-Foulkes estimate   =     -88.63253547 Ry
     estimated scf accuracy    <       0.03407606 Ry

     iteration # 23     ecut=    40.00 Ry     beta= 0.50
     Davidson diagonalization with overlap
     ethr =  5.46E-08,  avg # of iterations =  4.9

     total cpu time spent up to now is       74.0 secs

     total energy              =     -88.62296105 Ry
     Harris-Foulkes estimate   =     -88.62903195 Ry
     estimated scf accuracy    <       0.01729773 Ry

     iteration # 24     ecut=    40.00 Ry     beta= 0.50
     Davidson diagonalization with overlap
     c_bands:  3 eigenvalues not converged
     ethr =  5.46E-08,  avg # of iterations =  6.2

     total cpu time spent up to now is       78.2 secs

     total energy              =     -88.62758821 Ry
     Harris-Foulkes estimate   =     -88.63228722 Ry
     estimated scf accuracy    <       0.03288795 Ry

     iteration # 25     ecut=    40.00 Ry     beta= 0.50
     Davidson diagonalization with overlap
     ethr =  5.46E-08,  avg # of iterations =  4.5

     total cpu time spent up to now is       81.5 secs

     total energy              =     -88.62751332 Ry
     Harris-Foulkes estimate   =     -88.62823552 Ry
     estimated scf accuracy    <       0.01342132 Ry

     iteration # 26     ecut=    40.00 Ry     beta= 0.50
     Davidson diagonalization with overlap
     ethr =  5.46E-08,  avg # of iterations =  3.6

     total cpu time spent up to now is       84.0 secs

     total energy              =     -88.62886653 Ry
     Harris-Foulkes estimate   =     -88.62754999 Ry
     estimated scf accuracy    <       0.01004189 Ry

     iteration # 27     ecut=    40.00 Ry     beta= 0.50
     Davidson diagonalization with overlap
     ethr =  5.46E-08,  avg # of iterations =  4.0

     total cpu time spent up to now is       86.8 secs

     total energy              =     -88.62462187 Ry
     Harris-Foulkes estimate   =     -88.62900985 Ry
     estimated scf accuracy    <       0.01718096 Ry

     iteration # 28     ecut=    40.00 Ry     beta= 0.50
     Davidson diagonalization with overlap
     ethr =  5.46E-08,  avg # of iterations =  5.3

     total cpu time spent up to now is       90.9 secs

     total energy              =     -88.62682396 Ry
     Harris-Foulkes estimate   =     -88.62683612 Ry
     estimated scf accuracy    <       0.00173670 Ry

     iteration # 29     ecut=    40.00 Ry     beta= 0.50
     Davidson diagonalization with overlap
     ethr =  5.46E-08,  avg # of iterations =  2.6

     total cpu time spent up to now is       92.9 secs

     total energy              =     -88.62682946 Ry
     Harris-Foulkes estimate   =     -88.62682749 Ry
     estimated scf accuracy    <       0.00169639 Ry

     iteration # 30     ecut=    40.00 Ry     beta= 0.50
     Davidson diagonalization with overlap
     ethr =  5.46E-08,  avg # of iterations =  1.0

     total cpu time spent up to now is       94.2 secs

     total energy              =     -88.62704414 Ry
     Harris-Foulkes estimate   =     -88.62682983 Ry
     estimated scf accuracy    <       0.00170427 Ry

     iteration # 31     ecut=    40.00 Ry     beta= 0.50
     Davidson diagonalization with overlap
     c_bands:  2 eigenvalues not converged
     ethr =  5.46E-08,  avg # of iterations =  5.7

     total cpu time spent up to now is       98.3 secs

     total energy              =     -88.62916746 Ry
     Harris-Foulkes estimate   =     -88.63300110 Ry
     estimated scf accuracy    <       0.03630711 Ry

     iteration # 32     ecut=    40.00 Ry     beta= 0.50
     Davidson diagonalization with overlap
     ethr =  5.46E-08,  avg # of iterations =  4.4

     total cpu time spent up to now is      101.9 secs

     total energy              =     -88.62697253 Ry
     Harris-Foulkes estimate   =     -88.62954469 Ry
     estimated scf accuracy    <       0.01977933 Ry

     iteration # 33     ecut=    40.00 Ry     beta= 0.50
     Davidson diagonalization with overlap
     ethr =  5.46E-08,  avg # of iterations =  4.3

     total cpu time spent up to now is      105.5 secs

     total energy              =     -88.62710032 Ry
     Harris-Foulkes estimate   =     -88.62729942 Ry
     estimated scf accuracy    <       0.00880157 Ry

     iteration # 34     ecut=    40.00 Ry     beta= 0.50
     Davidson diagonalization with overlap
     ethr =  5.46E-08,  avg # of iterations =  3.4

     total cpu time spent up to now is      108.1 secs

     total energy              =     -88.62723838 Ry
     Harris-Foulkes estimate   =     -88.62724325 Ry
     estimated scf accuracy    <       0.00243526 Ry

     iteration # 35     ecut=    40.00 Ry     beta= 0.50
     Davidson diagonalization with overlap
     ethr =  5.46E-08,  avg # of iterations =  1.0

     total cpu time spent up to now is      109.5 secs

     total energy              =     -88.62724721 Ry
     Harris-Foulkes estimate   =     -88.62723880 Ry
     estimated scf accuracy    <       0.00241519 Ry

     iteration # 36     ecut=    40.00 Ry     beta= 0.50
     Davidson diagonalization with overlap
     ethr =  5.46E-08,  avg # of iterations =  1.1

     total cpu time spent up to now is      111.0 secs

     total energy              =     -88.62738193 Ry
     Harris-Foulkes estimate   =     -88.62724791 Ry
     estimated scf accuracy    <       0.00244840 Ry

     iteration # 37     ecut=    40.00 Ry     beta= 0.50
     Davidson diagonalization with overlap
     c_bands:  2 eigenvalues not converged
     ethr =  5.46E-08,  avg # of iterations =  5.9

     total cpu time spent up to now is      116.0 secs

     total energy              =     -88.62881933 Ry
     Harris-Foulkes estimate   =     -88.63236234 Ry
     estimated scf accuracy    <       0.03325560 Ry

     iteration # 38     ecut=    40.00 Ry     beta= 0.50
     Davidson diagonalization with overlap
     ethr =  5.46E-08,  avg # of iterations =  4.4

     total cpu time spent up to now is      119.9 secs

     total energy              =     -88.62787282 Ry
     Harris-Foulkes estimate   =     -88.62917192 Ry
     estimated scf accuracy    <       0.01797613 Ry

     iteration # 39     ecut=    40.00 Ry     beta= 0.50
     Davidson diagonalization with overlap
     ethr =  5.46E-08,  avg # of iterations =  3.8

     total cpu time spent up to now is      123.1 secs

     total energy              =     -88.62890050 Ry
     Harris-Foulkes estimate   =     -88.62796088 Ry
     estimated scf accuracy    <       0.01206400 Ry

     iteration # 40     ecut=    40.00 Ry     beta= 0.50
     Davidson diagonalization with overlap
     ethr =  5.46E-08,  avg # of iterations =  3.6

     total cpu time spent up to now is      126.2 secs

     total energy              =     -88.62940801 Ry
     Harris-Foulkes estimate   =     -88.62896291 Ry
     estimated scf accuracy    <       0.01695019 Ry

     iteration # 41     ecut=    40.00 Ry     beta= 0.50
     Davidson diagonalization with overlap
     ethr =  5.46E-08,  avg # of iterations =  3.3

     total cpu time spent up to now is      129.3 secs

     total energy              =     -88.62929377 Ry
     Harris-Foulkes estimate   =     -88.62941826 Ry
     estimated scf accuracy    <       0.01915741 Ry

     iteration # 42     ecut=    40.00 Ry     beta= 0.50
     Davidson diagonalization with overlap
     ethr =  5.46E-08,  avg # of iterations =  1.5

     total cpu time spent up to now is      131.1 secs

     total energy              =     -88.62254045 Ry
     Harris-Foulkes estimate   =     -88.62929444 Ry
     estimated scf accuracy    <       0.01862166 Ry

     iteration # 43     ecut=    40.00 Ry     beta= 0.50
     Davidson diagonalization with overlap
     c_bands:  2 eigenvalues not converged
     ethr =  5.46E-08,  avg # of iterations =  6.2

     total cpu time spent up to now is      136.9 secs

     total energy              =     -88.62873212 Ry
     Harris-Foulkes estimate   =     -88.63270538 Ry
     estimated scf accuracy    <       0.03488512 Ry

     iteration # 44     ecut=    40.00 Ry     beta= 0.50
     Davidson diagonalization with overlap
     ethr =  5.46E-08,  avg # of iterations =  4.5

     total cpu time spent up to now is      141.2 secs

     total energy              =     -88.62734340 Ry
     Harris-Foulkes estimate   =     -88.62915721 Ry
     estimated scf accuracy    <       0.01790391 Ry

     iteration # 45     ecut=    40.00 Ry     beta= 0.50
     Davidson diagonalization with overlap
     ethr =  5.46E-08,  avg # of iterations =  4.0

     total cpu time spent up to now is      146.1 secs

     total energy              =     -88.62507903 Ry
     Harris-Foulkes estimate   =     -88.62751969 Ry
     estimated scf accuracy    <       0.00988905 Ry

     iteration # 46     ecut=    40.00 Ry     beta= 0.50
     Davidson diagonalization with overlap
     ethr =  5.46E-08,  avg # of iterations =  5.3

     total cpu time spent up to now is      151.3 secs

     total energy              =     -88.62684158 Ry
     Harris-Foulkes estimate   =     -88.62685714 Ry
     estimated scf accuracy    <       0.00187874 Ry

     iteration # 47     ecut=    40.00 Ry     beta= 0.50
     Davidson diagonalization with overlap
     ethr =  5.46E-08,  avg # of iterations =  2.0

     total cpu time spent up to now is      153.5 secs

     total energy              =     -88.62683947 Ry
     Harris-Foulkes estimate   =     -88.62684309 Ry
     estimated scf accuracy    <       0.00181110 Ry

     iteration # 48     ecut=    40.00 Ry     beta= 0.50
     Davidson diagonalization with overlap
     ethr =  5.46E-08,  avg # of iterations =  1.0

     total cpu time spent up to now is      155.2 secs

     total energy              =     -88.62676443 Ry
     Harris-Foulkes estimate   =     -88.62683965 Ry
     estimated scf accuracy    <       0.00179730 Ry

     iteration # 49     ecut=    40.00 Ry     beta= 0.50
     Davidson diagonalization with overlap
     ethr =  5.46E-08,  avg # of iterations =  4.3

     total cpu time spent up to now is      159.6 secs

     total energy              =     -88.62709819 Ry
     Harris-Foulkes estimate   =     -88.62703593 Ry
     estimated scf accuracy    <       0.00276476 Ry

     iteration # 50     ecut=    40.00 Ry     beta= 0.50
     Davidson diagonalization with overlap
     ethr =  5.46E-08,  avg # of iterations =  2.6

     total cpu time spent up to now is      162.3 secs

     total energy              =     -88.62719722 Ry
     Harris-Foulkes estimate   =     -88.62710137 Ry
     estimated scf accuracy    <       0.00308435 Ry

     iteration # 51     ecut=    40.00 Ry     beta= 0.50
     Davidson diagonalization with overlap
     ethr =  5.46E-08,  avg # of iterations =  2.7

     total cpu time spent up to now is      165.2 secs

     total energy              =     -88.62606048 Ry
     Harris-Foulkes estimate   =     -88.62720323 Ry
     estimated scf accuracy    <       0.00359271 Ry

     iteration # 52     ecut=    40.00 Ry     beta= 0.50
     Davidson diagonalization with overlap
     c_bands:  3 eigenvalues not converged
     ethr =  5.46E-08,  avg # of iterations =  5.9

     total cpu time spent up to now is      171.2 secs

     total energy              =     -88.62801527 Ry
     Harris-Foulkes estimate   =     -88.63220765 Ry
     estimated scf accuracy    <       0.03274075 Ry

     iteration # 53     ecut=    40.00 Ry     beta= 0.50
     Davidson diagonalization with overlap
     ethr =  5.46E-08,  avg # of iterations =  5.0

     total cpu time spent up to now is      176.5 secs

     total energy              =     -88.62761583 Ry
     Harris-Foulkes estimate   =     -88.62857393 Ry
     estimated scf accuracy    <       0.01505924 Ry

     iteration # 54     ecut=    40.00 Ry     beta= 0.50
     Davidson diagonalization with overlap
     ethr =  5.46E-08,  avg # of iterations =  3.6

     total cpu time spent up to now is      180.2 secs

     total energy              =     -88.62394415 Ry
     Harris-Foulkes estimate   =     -88.62767327 Ry
     estimated scf accuracy    <       0.01063570 Ry

     iteration # 55     ecut=    40.00 Ry     beta= 0.50
     Davidson diagonalization with overlap
     c_bands:  3 eigenvalues not converged
     ethr =  5.46E-08,  avg # of iterations =  6.0

     total cpu time spent up to now is      186.6 secs

     total energy              =     -88.62915380 Ry
     Harris-Foulkes estimate   =     -88.63230675 Ry
     estimated scf accuracy    <       0.03299273 Ry

     iteration # 56     ecut=    40.00 Ry     beta= 0.50
     Davidson diagonalization with overlap
     ethr =  5.46E-08,  avg # of iterations =  4.4

     total cpu time spent up to now is      191.5 secs

     total energy              =     -88.62732119 Ry
     Harris-Foulkes estimate   =     -88.62943308 Ry
     estimated scf accuracy    <       0.01924192 Ry

     iteration # 57     ecut=    40.00 Ry     beta= 0.50
     Davidson diagonalization with overlap
     ethr =  5.46E-08,  avg # of iterations =  4.2

     total cpu time spent up to now is      196.3 secs

     total energy              =     -88.62737411 Ry
     Harris-Foulkes estimate   =     -88.62754417 Ry
     estimated scf accuracy    <       0.01001271 Ry

     iteration # 58     ecut=    40.00 Ry     beta= 0.50
     Davidson diagonalization with overlap
     ethr =  5.46E-08,  avg # of iterations =  3.2

     total cpu time spent up to now is      199.6 secs

     total energy              =     -88.62718678 Ry
     Harris-Foulkes estimate   =     -88.62738272 Ry
     estimated scf accuracy    <       0.00862351 Ry

     iteration # 59     ecut=    40.00 Ry     beta= 0.50
     Davidson diagonalization with overlap
     ethr =  5.46E-08,  avg # of iterations =  3.3

     total cpu time spent up to now is      203.1 secs

     total energy              =     -88.62721133 Ry
     Harris-Foulkes estimate   =     -88.62722308 Ry
     estimated scf accuracy    <       0.00369650 Ry

     iteration # 60     ecut=    40.00 Ry     beta= 0.50
     Davidson diagonalization with overlap
     ethr =  5.46E-08,  avg # of iterations =  1.0

     total cpu time spent up to now is      205.2 secs

     total energy              =     -88.62724598 Ry
     Harris-Foulkes estimate   =     -88.62721142 Ry
     estimated scf accuracy    <       0.00365297 Ry

     iteration # 61     ecut=    40.00 Ry     beta= 0.50
     Davidson diagonalization with overlap
     ethr =  5.46E-08,  avg # of iterations =  1.0

     total cpu time spent up to now is      207.1 secs

     total energy              =     -88.62741528 Ry
     Harris-Foulkes estimate   =     -88.62724633 Ry
     estimated scf accuracy    <       0.00377697 Ry

     iteration # 62     ecut=    40.00 Ry     beta= 0.50
     Davidson diagonalization with overlap
     ethr =  5.46E-08,  avg # of iterations =  2.8

     total cpu time spent up to now is      210.5 secs

     total energy              =     -88.62744146 Ry
     Harris-Foulkes estimate   =     -88.62742856 Ry
     estimated scf accuracy    <       0.00470319 Ry

     iteration # 63     ecut=    40.00 Ry     beta= 0.50
     Davidson diagonalization with overlap
     ethr =  5.46E-08,  avg # of iterations =  1.0

     total cpu time spent up to now is      212.5 secs

     total energy              =     -88.62570609 Ry
     Harris-Foulkes estimate   =     -88.62744153 Ry
     estimated scf accuracy    <       0.00474933 Ry

     iteration # 64     ecut=    40.00 Ry     beta= 0.50
     Davidson diagonalization with overlap
     ethr =  5.46E-08,  avg # of iterations =  5.9

     total cpu time spent up to now is      219.4 secs

     total energy              =     -88.62877660 Ry
     Harris-Foulkes estimate   =     -88.63241951 Ry
     estimated scf accuracy    <       0.03352186 Ry

     iteration # 65     ecut=    40.00 Ry     beta= 0.50
     Davidson diagonalization with overlap
     ethr =  5.46E-08,  avg # of iterations =  4.4

     total cpu time spent up to now is      224.7 secs

     total energy              =     -88.62776160 Ry
     Harris-Foulkes estimate   =     -88.62914657 Ry
     estimated scf accuracy    <       0.01785282 Ry

     iteration # 66     ecut=    40.00 Ry     beta= 0.50
     Davidson diagonalization with overlap
     ethr =  5.46E-08,  avg # of iterations =  3.8

     total cpu time spent up to now is      229.2 secs

     total energy              =     -88.62398433 Ry
     Harris-Foulkes estimate   =     -88.62786280 Ry
     estimated scf accuracy    <       0.01158068 Ry

     iteration # 67     ecut=    40.00 Ry     beta= 0.50
     Davidson diagonalization with overlap
     c_bands:  1 eigenvalues not converged
     ethr =  5.46E-08,  avg # of iterations =  6.0

     total cpu time spent up to now is      236.3 secs

     total energy              =     -88.63078044 Ry
     Harris-Foulkes estimate   =     -88.63031812 Ry
     estimated scf accuracy    <       0.01936690 Ry

     iteration # 68     ecut=    40.00 Ry     beta= 0.50
     Davidson diagonalization with overlap
     ethr =  5.46E-08,  avg # of iterations =  2.8

     total cpu time spent up to now is      240.0 secs

     total energy              =     -88.63076125 Ry
     Harris-Foulkes estimate   =     -88.63079164 Ry
     estimated scf accuracy    <       0.02166432 Ry

     iteration # 69     ecut=    40.00 Ry     beta= 0.50
     Davidson diagonalization with overlap
     ethr =  5.46E-08,  avg # of iterations =  1.0

     total cpu time spent up to now is      242.1 secs

     total energy              =     -88.63067499 Ry
     Harris-Foulkes estimate   =     -88.63076137 Ry
     estimated scf accuracy    <       0.02155433 Ry

     iteration # 70     ecut=    40.00 Ry     beta= 0.50
     Davidson diagonalization with overlap
     ethr =  5.46E-08,  avg # of iterations =  1.2

     total cpu time spent up to now is      244.4 secs

     total energy              =     -88.63068356 Ry
     Harris-Foulkes estimate   =     -88.63067542 Ry
     estimated scf accuracy    <       0.02118534 Ry

     iteration # 71     ecut=    40.00 Ry     beta= 0.50
     Davidson diagonalization with overlap
     ethr =  5.46E-08,  avg # of iterations =  1.0

     total cpu time spent up to now is      246.5 secs

     total energy              =     -88.63068366 Ry
     Harris-Foulkes estimate   =     -88.63068367 Ry
     estimated scf accuracy    <       0.02119409 Ry

     iteration # 72     ecut=    40.00 Ry     beta= 0.50
     Davidson diagonalization with overlap
     ethr =  5.46E-08,  avg # of iterations =  1.0

     total cpu time spent up to now is      248.8 secs

     total energy              =     -88.63068819 Ry
     Harris-Foulkes estimate   =     -88.63068368 Ry
     estimated scf accuracy    <       0.02118239 Ry

     iteration # 73     ecut=    40.00 Ry     beta= 0.50
     Davidson diagonalization with overlap
     ethr =  5.46E-08,  avg # of iterations =  1.0

     total cpu time spent up to now is      251.1 secs

     total energy              =     -88.63066280 Ry
     Harris-Foulkes estimate   =     -88.63068820 Ry
     estimated scf accuracy    <       0.02118820 Ry

     iteration # 74     ecut=    40.00 Ry     beta= 0.50
     Davidson diagonalization with overlap
     ethr =  5.46E-08,  avg # of iterations =  2.1

     total cpu time spent up to now is      254.0 secs

     total energy              =     -88.62770226 Ry
     Harris-Foulkes estimate   =     -88.63235666 Ry
     estimated scf accuracy    <       0.03328448 Ry

     iteration # 75     ecut=    40.00 Ry     beta= 0.50
     Davidson diagonalization with overlap
     ethr =  5.46E-08,  avg # of iterations =  4.5

     total cpu time spent up to now is      260.2 secs

     total energy              =     -88.62332488 Ry
     Harris-Foulkes estimate   =     -88.62833147 Ry
     estimated scf accuracy    <       0.01388925 Ry

     iteration # 76     ecut=    40.00 Ry     beta= 0.50
     Davidson diagonalization with overlap
     c_bands:  3 eigenvalues not converged
     ethr =  5.46E-08,  avg # of iterations =  6.1

     total cpu time spent up to now is      268.9 secs

     total energy              =     -88.62828234 Ry
     Harris-Foulkes estimate   =     -88.63259485 Ry
     estimated scf accuracy    <       0.03436867 Ry

     iteration # 77     ecut=    40.00 Ry     beta= 0.50
     Davidson diagonalization with overlap
     ethr =  5.46E-08,  avg # of iterations =  4.5

     total cpu time spent up to now is      275.1 secs

     total energy              =     -88.62782063 Ry
     Harris-Foulkes estimate   =     -88.62879720 Ry
     estimated scf accuracy    <       0.01616285 Ry

     iteration # 78     ecut=    40.00 Ry     beta= 0.50
     Davidson diagonalization with overlap
     ethr =  5.46E-08,  avg # of iterations =  3.7

     total cpu time spent up to now is      279.8 secs

     total energy              =     -88.62679327 Ry
     Harris-Foulkes estimate   =     -88.62787593 Ry
     estimated scf accuracy    <       0.01164809 Ry

     iteration # 79     ecut=    40.00 Ry     beta= 0.50
     Davidson diagonalization with overlap
     ethr =  5.46E-08,  avg # of iterations =  4.5

     total cpu time spent up to now is      285.5 secs

     total energy              =     -88.62717005 Ry
     Harris-Foulkes estimate   =     -88.62708628 Ry
     estimated scf accuracy    <       0.00303166 Ry

     iteration # 80     ecut=    40.00 Ry     beta= 0.50
     Davidson diagonalization with overlap
     ethr =  5.46E-08,  avg # of iterations =  2.6

     total cpu time spent up to now is      289.1 secs

     total energy              =     -88.62716809 Ry
     Harris-Foulkes estimate   =     -88.62717454 Ry
     estimated scf accuracy    <       0.00346109 Ry

     iteration # 81     ecut=    40.00 Ry     beta= 0.50
     Davidson diagonalization with overlap
     ethr =  5.46E-08,  avg # of iterations =  1.0

     total cpu time spent up to now is      291.5 secs

     total energy              =     -88.62715316 Ry
     Harris-Foulkes estimate   =     -88.62716815 Ry
     estimated scf accuracy    <       0.00344014 Ry

     iteration # 82     ecut=    40.00 Ry     beta= 0.50
     Davidson diagonalization with overlap
     ethr =  5.46E-08,  avg # of iterations =  1.0

     total cpu time spent up to now is      293.9 secs

     total energy              =     -88.62721262 Ry
     Harris-Foulkes estimate   =     -88.62715328 Ry
     estimated scf accuracy    <       0.00337761 Ry

     iteration # 83     ecut=    40.00 Ry     beta= 0.50
     Davidson diagonalization with overlap
     ethr =  5.46E-08,  avg # of iterations =  2.2

     total cpu time spent up to now is      297.1 secs

     total energy              =     -88.62734624 Ry
     Harris-Foulkes estimate   =     -88.62721398 Ry
     estimated scf accuracy    <       0.00362489 Ry

     iteration # 84     ecut=    40.00 Ry     beta= 0.50
     Davidson diagonalization with overlap
     ethr =  5.46E-08,  avg # of iterations =  2.8

     total cpu time spent up to now is      301.2 secs

     total energy              =     -88.62583836 Ry
     Harris-Foulkes estimate   =     -88.62735560 Ry
     estimated scf accuracy    <       0.00435683 Ry

     iteration # 85     ecut=    40.00 Ry     beta= 0.50
     Davidson diagonalization with overlap
     c_bands:  2 eigenvalues not converged
     ethr =  5.46E-08,  avg # of iterations =  6.0

     total cpu time spent up to now is      309.4 secs

     total energy              =     -88.62830866 Ry
     Harris-Foulkes estimate   =     -88.63227980 Ry
     estimated scf accuracy    <       0.03285589 Ry

     iteration # 86     ecut=    40.00 Ry     beta= 0.50
     Davidson diagonalization with overlap
     ethr =  5.46E-08,  avg # of iterations =  4.5

     total cpu time spent up to now is      315.9 secs

     total energy              =     -88.62770593 Ry
     Harris-Foulkes estimate   =     -88.62876153 Ry
     estimated scf accuracy    <       0.01598244 Ry

     iteration # 87     ecut=    40.00 Ry     beta= 0.50
     Davidson diagonalization with overlap
     ethr =  5.46E-08,  avg # of iterations =  3.6

     total cpu time spent up to now is      321.0 secs

     total energy              =     -88.62386553 Ry
     Harris-Foulkes estimate   =     -88.62777133 Ry
     estimated scf accuracy    <       0.01113131 Ry

     iteration # 88     ecut=    40.00 Ry     beta= 0.50
     Davidson diagonalization with overlap
     c_bands:  2 eigenvalues not converged
     ethr =  5.46E-08,  avg # of iterations =  6.0

     total cpu time spent up to now is      329.5 secs

     total energy              =     -88.63103823 Ry
     Harris-Foulkes estimate   =     -88.63140102 Ry
     estimated scf accuracy    <       0.03314601 Ry

     iteration # 89     ecut=    40.00 Ry     beta= 0.50
     Davidson diagonalization with overlap
     ethr =  5.46E-08,  avg # of iterations =  3.1

     total cpu time spent up to now is      333.7 secs

     total energy              =     -88.62914976 Ry
     Harris-Foulkes estimate   =     -88.63196026 Ry
     estimated scf accuracy    <       0.03139235 Ry

     iteration # 90     ecut=    40.00 Ry     beta= 0.50
     Davidson diagonalization with overlap
     ethr =  5.46E-08,  avg # of iterations =  4.2

     total cpu time spent up to now is      339.9 secs

     total energy              =     -88.62791149 Ry
     Harris-Foulkes estimate   =     -88.62938403 Ry
     estimated scf accuracy    <       0.01899811 Ry

     iteration # 91     ecut=    40.00 Ry     beta= 0.50
     Davidson diagonalization with overlap
     ethr =  5.46E-08,  avg # of iterations =  3.8

     total cpu time spent up to now is      345.6 secs

     total energy              =     -88.62750576 Ry
     Harris-Foulkes estimate   =     -88.62801832 Ry
     estimated scf accuracy    <       0.01234592 Ry

     iteration # 92     ecut=    40.00 Ry     beta= 0.50
     Davidson diagonalization with overlap
     ethr =  5.46E-08,  avg # of iterations =  3.4

     total cpu time spent up to now is      350.5 secs

     total energy              =     -88.62696326 Ry
     Harris-Foulkes estimate   =     -88.62752551 Ry
     estimated scf accuracy    <       0.00992039 Ry

     iteration # 93     ecut=    40.00 Ry     beta= 0.50
     Davidson diagonalization with overlap
     ethr =  5.46E-08,  avg # of iterations =  3.9

     total cpu time spent up to now is      356.0 secs

     total energy              =     -88.62713930 Ry
     Harris-Foulkes estimate   =     -88.62713560 Ry
     estimated scf accuracy    <       0.00326840 Ry

     iteration # 94     ecut=    40.00 Ry     beta= 0.50
     Davidson diagonalization with overlap
     ethr =  5.46E-08,  avg # of iterations =  1.0

     total cpu time spent up to now is      358.6 secs

     total energy              =     -88.62721780 Ry
     Harris-Foulkes estimate   =     -88.62713934 Ry
     estimated scf accuracy    <       0.00328200 Ry

     iteration # 95     ecut=    40.00 Ry     beta= 0.50
     Davidson diagonalization with overlap
     ethr =  5.46E-08,  avg # of iterations =  2.6

     total cpu time spent up to now is      362.7 secs

     total energy              =     -88.62725529 Ry
     Harris-Foulkes estimate   =     -88.62722133 Ry
     estimated scf accuracy    <       0.00368632 Ry

     iteration # 96     ecut=    40.00 Ry     beta= 0.50
     Davidson diagonalization with overlap
     ethr =  5.46E-08,  avg # of iterations =  1.0

     total cpu time spent up to now is      365.3 secs

     total energy              =     -88.62600209 Ry
     Harris-Foulkes estimate   =     -88.62725574 Ry
     estimated scf accuracy    <       0.00382301 Ry

     iteration # 97     ecut=    40.00 Ry     beta= 0.50
     Davidson diagonalization with overlap
     c_bands:  2 eigenvalues not converged
     ethr =  5.46E-08,  avg # of iterations =  5.9

     total cpu time spent up to now is      374.3 secs

     total energy              =     -88.62919978 Ry
     Harris-Foulkes estimate   =     -88.63227099 Ry
     estimated scf accuracy    <       0.03282054 Ry

     iteration # 98     ecut=    40.00 Ry     beta= 0.50
     Davidson diagonalization with overlap
     ethr =  5.46E-08,  avg # of iterations =  4.3

     total cpu time spent up to now is      381.0 secs

     total energy              =     -88.62851748 Ry
     Harris-Foulkes estimate   =     -88.62946589 Ry
     estimated scf accuracy    <       0.01939737 Ry

     iteration # 99     ecut=    40.00 Ry     beta= 0.50
     Davidson diagonalization with overlap
     ethr =  5.46E-08,  avg # of iterations =  3.6

     total cpu time spent up to now is      387.3 secs

     total energy              =     -88.62771734 Ry
     Harris-Foulkes estimate   =     -88.62856000 Ry
     estimated scf accuracy    <       0.01499642 Ry

     iteration #100     ecut=    40.00 Ry     beta= 0.50
     Davidson diagonalization with overlap
     ethr =  5.46E-08,  avg # of iterations =  3.6

     total cpu time spent up to now is      392.8 secs

     total energy              =     -88.62763571 Ry
     Harris-Foulkes estimate   =     -88.62776143 Ry
     estimated scf accuracy    <       0.01108232 Ry

     iteration #101     ecut=    40.00 Ry     beta= 0.50
     Davidson diagonalization with overlap
     ethr =  5.46E-08,  avg # of iterations =  1.7

     total cpu time spent up to now is      396.1 secs

     total energy              =     -88.62393158 Ry
     Harris-Foulkes estimate   =     -88.62763694 Ry
     estimated scf accuracy    <       0.01050568 Ry

     iteration #102     ecut=    40.00 Ry     beta= 0.50
     Davidson diagonalization with overlap
     c_bands:  3 eigenvalues not converged
     ethr =  5.46E-08,  avg # of iterations =  5.9

     total cpu time spent up to now is      405.4 secs

     total energy              =     -88.62930387 Ry
     Harris-Foulkes estimate   =     -88.63237171 Ry
     estimated scf accuracy    <       0.03332265 Ry

     iteration #103     ecut=    40.00 Ry     beta= 0.50
     Davidson diagonalization with overlap
     ethr =  5.46E-08,  avg # of iterations =  4.4

     total cpu time spent up to now is      412.5 secs

     total energy              =     -88.62818754 Ry
     Harris-Foulkes estimate   =     -88.62957038 Ry
     estimated scf accuracy    <       0.01990381 Ry

     iteration #104     ecut=    40.00 Ry     beta= 0.50
     Davidson diagonalization with overlap
     ethr =  5.46E-08,  avg # of iterations =  3.8

     total cpu time spent up to now is      418.5 secs

     total energy              =     -88.62732865 Ry
     Harris-Foulkes estimate   =     -88.62827693 Ry
     estimated scf accuracy    <       0.01361305 Ry

     iteration #105     ecut=    40.00 Ry     beta= 0.50
     Davidson diagonalization with overlap
     ethr =  5.46E-08,  avg # of iterations =  4.1

     total cpu time spent up to now is      424.8 secs

     total energy              =     -88.62719063 Ry
     Harris-Foulkes estimate   =     -88.62739709 Ry
     estimated scf accuracy    <       0.00869984 Ry

     iteration #106     ecut=    40.00 Ry     beta= 0.50
     Davidson diagonalization with overlap
     ethr =  5.46E-08,  avg # of iterations =  3.2

     total cpu time spent up to now is      429.9 secs

     total energy              =     -88.62729520 Ry
     Harris-Foulkes estimate   =     -88.62722303 Ry
     estimated scf accuracy    <       0.00369866 Ry

     iteration #107     ecut=    40.00 Ry     beta= 0.50
     Davidson diagonalization with overlap
     ethr =  5.46E-08,  avg # of iterations =  2.2

     total cpu time spent up to now is      433.9 secs

     total energy              =     -88.62727033 Ry
     Harris-Foulkes estimate   =     -88.62729718 Ry
     estimated scf accuracy    <       0.00403698 Ry

     iteration #108     ecut=    40.00 Ry     beta= 0.50
     Davidson diagonalization with overlap
     ethr =  5.46E-08,  avg # of iterations =  1.0

     total cpu time spent up to now is      436.8 secs

     total energy              =     -88.62736564 Ry
     Harris-Foulkes estimate   =     -88.62727056 Ry
     estimated scf accuracy    <       0.00394584 Ry

     iteration #109     ecut=    40.00 Ry     beta= 0.50
     Davidson diagonalization with overlap
     ethr =  5.46E-08,  avg # of iterations =  2.7

     total cpu time spent up to now is      441.3 secs

     total energy              =     -88.62739207 Ry
     Harris-Foulkes estimate   =     -88.62736880 Ry
     estimated scf accuracy    <       0.00440347 Ry

     iteration #110     ecut=    40.00 Ry     beta= 0.50
     Davidson diagonalization with overlap
     ethr =  5.46E-08,  avg # of iterations =  1.0

     total cpu time spent up to now is      444.2 secs

     total energy              =     -88.62579042 Ry
     Harris-Foulkes estimate   =     -88.62739225 Ry
     estimated scf accuracy    <       0.00449080 Ry

     iteration #111     ecut=    40.00 Ry     beta= 0.50
     Davidson diagonalization with overlap
     ethr =  5.46E-08,  avg # of iterations =  5.9

     total cpu time spent up to now is      454.1 secs

     total energy              =     -88.62872426 Ry
     Harris-Foulkes estimate   =     -88.63231059 Ry
     estimated scf accuracy    <       0.03300581 Ry

     iteration #112     ecut=    40.00 Ry     beta= 0.50
     Davidson diagonalization with overlap
     ethr =  5.46E-08,  avg # of iterations =  4.4

     total cpu time spent up to now is      461.7 secs

     total energy              =     -88.62743381 Ry
     Harris-Foulkes estimate   =     -88.62908824 Ry
     estimated scf accuracy    <       0.01757033 Ry

     iteration #113     ecut=    40.00 Ry     beta= 0.50
     Davidson diagonalization with overlap
     ethr =  5.46E-08,  avg # of iterations =  4.0

     total cpu time spent up to now is      468.4 secs

     total energy              =     -88.62392546 Ry
     Harris-Foulkes estimate   =     -88.62758241 Ry
     estimated scf accuracy    <       0.01019875 Ry

     iteration #114     ecut=    40.00 Ry     beta= 0.50
     Davidson diagonalization with overlap
     c_bands:  1 eigenvalues not converged
     ethr =  5.46E-08,  avg # of iterations =  6.0

     total cpu time spent up to now is      478.5 secs

     total energy              =     -88.63058348 Ry
     Harris-Foulkes estimate   =     -88.63077588 Ry
     estimated scf accuracy    <       0.02156723 Ry

     iteration #115     ecut=    40.00 Ry     beta= 0.50
     Davidson diagonalization with overlap
     ethr =  5.46E-08,  avg # of iterations =  2.0

     total cpu time spent up to now is      482.5 secs

     total energy              =     -88.63058104 Ry
     Harris-Foulkes estimate   =     -88.63058511 Ry
     estimated scf accuracy    <       0.02071955 Ry

     iteration #116     ecut=    40.00 Ry     beta= 0.50
     Davidson diagonalization with overlap
     ethr =  5.46E-08,  avg # of iterations =  1.0

     total cpu time spent up to now is      485.5 secs

     total energy              =     -88.63064903 Ry
     Harris-Foulkes estimate   =     -88.63058114 Ry
     estimated scf accuracy    <       0.02069957 Ry

     iteration #117     ecut=    40.00 Ry     beta= 0.50
     Davidson diagonalization with overlap
     ethr =  5.46E-08,  avg # of iterations =  1.0

     total cpu time spent up to now is      488.6 secs

     total energy              =     -88.63079604 Ry
     Harris-Foulkes estimate   =     -88.63064923 Ry
     estimated scf accuracy    <       0.02090451 Ry

     iteration #118     ecut=    40.00 Ry     beta= 0.50
     Davidson diagonalization with overlap
     ethr =  5.46E-08,  avg # of iterations =  1.8

     total cpu time spent up to now is      492.4 secs

     total energy              =     -88.63090658 Ry
     Harris-Foulkes estimate   =     -88.63079711 Ry
     estimated scf accuracy    <       0.02157646 Ry

     iteration #119     ecut=    40.00 Ry     beta= 0.50
     Davidson diagonalization with overlap
     ethr =  5.46E-08,  avg # of iterations =  1.0

     total cpu time spent up to now is      495.5 secs

     total energy              =     -88.63077074 Ry
     Harris-Foulkes estimate   =     -88.63090713 Ry
     estimated scf accuracy    <       0.02199551 Ry

     iteration #120     ecut=    40.00 Ry     beta= 0.50
     Davidson diagonalization with overlap
     ethr =  5.46E-08,  avg # of iterations =  1.0

     total cpu time spent up to now is      498.6 secs

     total energy              =     -88.63064761 Ry
     Harris-Foulkes estimate   =     -88.63077131 Ry
     estimated scf accuracy    <       0.02160905 Ry

     iteration #121     ecut=    40.00 Ry     beta= 0.50
     Davidson diagonalization with overlap
     ethr =  5.46E-08,  avg # of iterations =  1.7

     total cpu time spent up to now is      502.3 secs

     total energy              =     -88.63032757 Ry
     Harris-Foulkes estimate   =     -88.63064849 Ry
     estimated scf accuracy    <       0.02106651 Ry

     iteration #122     ecut=    40.00 Ry     beta= 0.50
     Davidson diagonalization with overlap
     ethr =  5.46E-08,  avg # of iterations =  3.8

     total cpu time spent up to now is      509.4 secs

     total energy              =     -88.61994522 Ry
     Harris-Foulkes estimate   =     -88.63200653 Ry
     estimated scf accuracy    <       0.03158273 Ry

     iteration #123     ecut=    40.00 Ry     beta= 0.50
     Davidson diagonalization with overlap
     c_bands:  3 eigenvalues not converged
     ethr =  5.46E-08,  avg # of iterations =  6.6

     total cpu time spent up to now is      521.0 secs

     total energy              =     -88.62608054 Ry
     Harris-Foulkes estimate   =     -88.63362615 Ry
     estimated scf accuracy    <       0.03925589 Ry

     iteration #124     ecut=    40.00 Ry     beta= 0.50
     Davidson diagonalization with overlap
     ethr =  5.46E-08,  avg # of iterations =  5.3

     total cpu time spent up to now is      530.9 secs

     total energy              =     -88.62739778 Ry
     Harris-Foulkes estimate   =     -88.62754353 Ry
     estimated scf accuracy    <       0.00942613 Ry

     iteration #125     ecut=    40.00 Ry     beta= 0.50
     Davidson diagonalization with overlap
     ethr =  5.46E-08,  avg # of iterations =  2.2

     total cpu time spent up to now is      535.3 secs

     total energy              =     -88.62706233 Ry
     Harris-Foulkes estimate   =     -88.62739992 Ry
     estimated scf accuracy    <       0.00874184 Ry

     iteration #126     ecut=    40.00 Ry     beta= 0.50
     Davidson diagonalization with overlap
     ethr =  5.46E-08,  avg # of iterations =  3.9

     total cpu time spent up to now is      542.0 secs

     total energy              =     -88.62726985 Ry
     Harris-Foulkes estimate   =     -88.62725422 Ry
     estimated scf accuracy    <       0.00384532 Ry

     iteration #127     ecut=    40.00 Ry     beta= 0.50
     Davidson diagonalization with overlap
     ethr =  5.46E-08,  avg # of iterations =  1.0

     total cpu time spent up to now is      545.1 secs

     total energy              =     -88.62723586 Ry
     Harris-Foulkes estimate   =     -88.62726995 Ry
     estimated scf accuracy    <       0.00390112 Ry

     iteration #128     ecut=    40.00 Ry     beta= 0.50
     Davidson diagonalization with overlap
     ethr =  5.46E-08,  avg # of iterations =  2.6

     total cpu time spent up to now is      550.2 secs

     total energy              =     -88.62717723 Ry
     Harris-Foulkes estimate   =     -88.62724013 Ry
     estimated scf accuracy    <       0.00377974 Ry

     iteration #129     ecut=    40.00 Ry     beta= 0.50
     Davidson diagonalization with overlap
     c_bands:  2 eigenvalues not converged
     ethr =  5.46E-08,  avg # of iterations =  4.8

     total cpu time spent up to now is      558.0 secs

     total energy              =     -88.62784254 Ry
     Harris-Foulkes estimate   =     -88.62805681 Ry
     estimated scf accuracy    <       0.01229484 Ry

     iteration #130     ecut=    40.00 Ry     beta= 0.50
     Davidson diagonalization with overlap
     ethr =  5.46E-08,  avg # of iterations =  3.3

     total cpu time spent up to now is      563.8 secs

     total energy              =     -88.62647151 Ry
     Harris-Foulkes estimate   =     -88.62785625 Ry
     estimated scf accuracy    <       0.01155507 Ry

     iteration #131     ecut=    40.00 Ry     beta= 0.50
     Davidson diagonalization with overlap
     c_bands:  4 eigenvalues not converged
     ethr =  5.46E-08,  avg # of iterations =  5.5

     total cpu time spent up to now is      573.1 secs

     total energy              =     -88.62760586 Ry
     Harris-Foulkes estimate   =     -88.62788628 Ry
     estimated scf accuracy    <       0.01189822 Ry

     iteration #132     ecut=    40.00 Ry     beta= 0.50
     Davidson diagonalization with overlap
     ethr =  5.46E-08,  avg # of iterations =  3.2

     total cpu time spent up to now is      579.2 secs

     total energy              =     -88.62742430 Ry
     Harris-Foulkes estimate   =     -88.62766688 Ry
     estimated scf accuracy    <       0.01050715 Ry

     iteration #133     ecut=    40.00 Ry     beta= 0.50
     Davidson diagonalization with overlap
     ethr =  5.46E-08,  avg # of iterations =  2.8

     total cpu time spent up to now is      584.6 secs

     total energy              =     -88.62686668 Ry
     Harris-Foulkes estimate   =     -88.62742962 Ry
     estimated scf accuracy    <       0.00933310 Ry

     iteration #134     ecut=    40.00 Ry     beta= 0.50
     Davidson diagonalization with overlap
     c_bands:  3 eigenvalues not converged
     ethr =  5.46E-08,  avg # of iterations =  4.9

     total cpu time spent up to now is      592.6 secs

     total energy              =     -88.62712109 Ry
     Harris-Foulkes estimate   =     -88.62745127 Ry
     estimated scf accuracy    <       0.00497750 Ry

     iteration #135     ecut=    40.00 Ry     beta= 0.50
     Davidson diagonalization with overlap
     c_bands:  3 eigenvalues not converged
     ethr =  5.46E-08,  avg # of iterations =  5.0

     total cpu time spent up to now is      600.8 secs

     total energy              =     -88.62717696 Ry
     Harris-Foulkes estimate   =     -88.62738843 Ry
     estimated scf accuracy    <       0.00517564 Ry

     iteration #136     ecut=    40.00 Ry     beta= 0.50
     Davidson diagonalization with overlap
     ethr =  5.46E-08,  avg # of iterations =  3.7

     total cpu time spent up to now is      607.4 secs

     total energy              =     -88.62738315 Ry
     Harris-Foulkes estimate   =     -88.62726395 Ry
     estimated scf accuracy    <       0.00334786 Ry

     iteration #137     ecut=    40.00 Ry     beta= 0.50
     Davidson diagonalization with overlap
     c_bands:  1 eigenvalues not converged
     ethr =  5.46E-08,  avg # of iterations =  4.6

     total cpu time spent up to now is      615.3 secs

     total energy              =     -88.62733920 Ry
     Harris-Foulkes estimate   =     -88.62759011 Ry
     estimated scf accuracy    <       0.01008321 Ry

     iteration #138     ecut=    40.00 Ry     beta= 0.50
     Davidson diagonalization with overlap
     ethr =  5.46E-08,  avg # of iterations =  2.7

     total cpu time spent up to now is      620.8 secs

     total energy              =     -88.62676809 Ry
     Harris-Foulkes estimate   =     -88.62734495 Ry
     estimated scf accuracy    <       0.00888591 Ry

     iteration #139     ecut=    40.00 Ry     beta= 0.50
     Davidson diagonalization with overlap
     c_bands:  4 eigenvalues not converged
     ethr =  5.46E-08,  avg # of iterations =  4.9

     total cpu time spent up to now is      630.0 secs

     total energy              =     -88.62735363 Ry
     Harris-Foulkes estimate   =     -88.62769479 Ry
     estimated scf accuracy    <       0.01080969 Ry

     iteration #140     ecut=    40.00 Ry     beta= 0.50
     Davidson diagonalization with overlap
     ethr =  5.46E-08,  avg # of iterations =  3.5

     total cpu time spent up to now is      636.6 secs

     total energy              =     -88.62729721 Ry
     Harris-Foulkes estimate   =     -88.62738581 Ry
     estimated scf accuracy    <       0.00891257 Ry

     iteration #141     ecut=    40.00 Ry     beta= 0.50
     Davidson diagonalization with overlap
     ethr =  5.46E-08,  avg # of iterations =  1.4

     total cpu time spent up to now is      640.5 secs

     total energy              =     -88.62734155 Ry
     Harris-Foulkes estimate   =     -88.62729792 Ry
     estimated scf accuracy    <       0.00854957 Ry

     iteration #142     ecut=    40.00 Ry     beta= 0.50
     Davidson diagonalization with overlap
     ethr =  5.46E-08,  avg # of iterations =  1.0

     total cpu time spent up to now is      644.0 secs

     total energy              =     -88.62737381 Ry
     Harris-Foulkes estimate   =     -88.62734177 Ry
[...]
     estimated scf accuracy    <       0.02101609 Ry

     iteration #205     ecut=    40.00 Ry     beta= 0.50
     Davidson diagonalization with overlap
     ethr =  5.46E-08,  avg # of iterations =  1.0

     total cpu time spent up to now is     1170.2 secs

     total energy              =     -88.63055235 Ry
     Harris-Foulkes estimate   =     -88.63057022 Ry
     estimated scf accuracy    <       0.02091917 Ry

     iteration #206     ecut=    40.00 Ry     beta= 0.50
     Davidson diagonalization with overlap
     ethr =  5.46E-08,  avg # of iterations =  1.0

     total cpu time spent up to now is     1175.0 secs

     total energy              =     -88.62583585 Ry
     Harris-Foulkes estimate   =     -88.63055242 Ry
     estimated scf accuracy    <       0.02084164 Ry

     iteration #207     ecut=    40.00 Ry     beta= 0.50
     Davidson diagonalization with overlap
     c_bands:  3 eigenvalues not converged
     ethr =  5.46E-08,  avg # of iterations =  6.3

     total cpu time spent up to now is     1191.9 secs

     total energy              =     -88.62711409 Ry
     Harris-Foulkes estimate   =     -88.62803472 Ry
     estimated scf accuracy    <       0.00789625 Ry

     iteration #208     ecut=    40.00 Ry     beta= 0.50
     Davidson diagonalization with overlap
     ethr =  5.46E-08,  avg # of iterations =  5.7

     total cpu time spent up to now is     1206.3 secs

     total energy              =     -88.62557258 Ry
     Harris-Foulkes estimate   =     -88.62805553 Ry
     estimated scf accuracy    <       0.01252004 Ry

     iteration #209     ecut=    40.00 Ry     beta= 0.50
     Davidson diagonalization with overlap
     ethr =  5.46E-08,  avg # of iterations =  4.4

     total cpu time spent up to now is     1219.6 secs

     total energy              =     -88.62579771 Ry
     Harris-Foulkes estimate   =     -88.62609689 Ry
     estimated scf accuracy    <       0.00277498 Ry

     iteration #210     ecut=    40.00 Ry     beta= 0.50
     Davidson diagonalization with overlap
     ethr =  5.46E-08,  avg # of iterations =  4.9

     total cpu time spent up to now is     1231.7 secs

     total energy              =     -88.63009522 Ry
     Harris-Foulkes estimate   =     -88.62982226 Ry
     estimated scf accuracy    <       0.02108965 Ry

     iteration #211     ecut=    40.00 Ry     beta= 0.50
     Davidson diagonalization with overlap
     ethr =  5.46E-08,  avg # of iterations =  2.6

     total cpu time spent up to now is     1240.1 secs

     total energy              =     -88.62943653 Ry
     Harris-Foulkes estimate   =     -88.63009982 Ry
     estimated scf accuracy    <       0.02240904 Ry

     iteration #212     ecut=    40.00 Ry     beta= 0.50
     Davidson diagonalization with overlap
     ethr =  5.46E-08,  avg # of iterations =  3.4

     total cpu time spent up to now is     1249.6 secs

     total energy              =     -88.62857601 Ry
     Harris-Foulkes estimate   =     -88.62945497 Ry
     estimated scf accuracy    <       0.01932869 Ry

     iteration #213     ecut=    40.00 Ry     beta= 0.50
     Davidson diagonalization with overlap
     ethr =  5.46E-08,  avg # of iterations =  4.0

     total cpu time spent up to now is     1260.3 secs

     total energy              =     -88.62845646 Ry
     Harris-Foulkes estimate   =     -88.62861318 Ry
     estimated scf accuracy    <       0.01523991 Ry

     iteration #214     ecut=    40.00 Ry     beta= 0.50
     Davidson diagonalization with overlap
     ethr =  5.46E-08,  avg # of iterations =  1.6

     total cpu time spent up to now is     1266.2 secs

     total energy              =     -88.62684615 Ry
     Harris-Foulkes estimate   =     -88.62845785 Ry
     estimated scf accuracy    <       0.01453019 Ry

     iteration #215     ecut=    40.00 Ry     beta= 0.50
     Davidson diagonalization with overlap
     c_bands:  4 eigenvalues not converged
     ethr =  5.46E-08,  avg # of iterations =  5.3

     total cpu time spent up to now is     1280.1 secs

     total energy              =     -88.62792011 Ry
     Harris-Foulkes estimate   =     -88.62742729 Ry
     estimated scf accuracy    <       0.00581748 Ry

     iteration #216     ecut=    40.00 Ry     beta= 0.50
     Davidson diagonalization with overlap
     ethr =  5.46E-08,  avg # of iterations =  6.0

     total cpu time spent up to now is     1297.2 secs

     total energy              =     -88.62651347 Ry
     Harris-Foulkes estimate   =     -88.63336240 Ry
     estimated scf accuracy    <       0.03799343 Ry

     iteration #217     ecut=    40.00 Ry     beta= 0.50
     Davidson diagonalization with overlap
     ethr =  5.46E-08,  avg # of iterations =  5.2

     total cpu time spent up to now is     1312.9 secs

     total energy              =     -88.62944329 Ry
     Harris-Foulkes estimate   =     -88.62775364 Ry
     estimated scf accuracy    <       0.01099652 Ry

     iteration #218     ecut=    40.00 Ry     beta= 0.50
     Davidson diagonalization with overlap
     ethr =  5.46E-08,  avg # of iterations =  5.3

     total cpu time spent up to now is     1327.6 secs

     total energy              =     -88.62163464 Ry
     Harris-Foulkes estimate   =     -88.62966597 Ry
     estimated scf accuracy    <       0.02033297 Ry

     iteration #219     ecut=    40.00 Ry     beta= 0.50
     Davidson diagonalization with overlap
     c_bands:  3 eigenvalues not converged
     ethr =  5.46E-08,  avg # of iterations =  7.2

     total cpu time spent up to now is     1347.9 secs

     total energy              =     -88.62814024 Ry
     Harris-Foulkes estimate   =     -88.63411759 Ry
     estimated scf accuracy    <       0.04154379 Ry

     iteration #220     ecut=    40.00 Ry     beta= 0.50
     Davidson diagonalization with overlap
     ethr =  5.46E-08,  avg # of iterations =  4.6

     total cpu time spent up to now is     1363.8 secs

     total energy              =     -88.62712654 Ry
     Harris-Foulkes estimate   =     -88.62896783 Ry
     estimated scf accuracy    <       0.01697413 Ry

     iteration #221     ecut=    40.00 Ry     beta= 0.50
     Davidson diagonalization with overlap
     c_bands:  2 eigenvalues not converged
     ethr =  5.46E-08,  avg # of iterations =  5.7

     total cpu time spent up to now is     1379.1 secs

     total energy              =     -88.62751868 Ry
     Harris-Foulkes estimate   =     -88.62748684 Ry
     estimated scf accuracy    <       0.00639525 Ry

     iteration #222     ecut=    40.00 Ry     beta= 0.50
     Davidson diagonalization with overlap
     ethr =  5.46E-08,  avg # of iterations =  1.3

     total cpu time spent up to now is     1385.0 secs

     total energy              =     -88.62753175 Ry
     Harris-Foulkes estimate   =     -88.62751909 Ry
     estimated scf accuracy    <       0.00652068 Ry

     iteration #223     ecut=    40.00 Ry     beta= 0.50
     Davidson diagonalization with overlap
     ethr =  5.46E-08,  avg # of iterations =  1.0

     total cpu time spent up to now is     1390.5 secs

     total energy              =     -88.62745790 Ry
     Harris-Foulkes estimate   =     -88.62753185 Ry
     estimated scf accuracy    <       0.00657579 Ry

     iteration #224     ecut=    40.00 Ry     beta= 0.50
     Davidson diagonalization with overlap
     ethr =  5.46E-08,  avg # of iterations =  1.0

     total cpu time spent up to now is     1396.0 secs

     total energy              =     -88.62886741 Ry
     Harris-Foulkes estimate   =     -88.62745857 Ry
     estimated scf accuracy    <       0.00630904 Ry

     iteration #225     ecut=    40.00 Ry     beta= 0.50
     Davidson diagonalization with overlap
     ethr =  5.46E-08,  avg # of iterations =  5.4

     total cpu time spent up to now is     1412.2 secs

     total energy              =     -88.63053902 Ry
     Harris-Foulkes estimate   =     -88.62941670 Ry
     estimated scf accuracy    <       0.01907830 Ry

     iteration #226     ecut=    40.00 Ry     beta= 0.50
     Davidson diagonalization with overlap
     ethr =  5.46E-08,  avg # of iterations =  3.6

     total cpu time spent up to now is     1423.2 secs

     total energy              =     -88.62534726 Ry
     Harris-Foulkes estimate   =     -88.63059643 Ry
     estimated scf accuracy    <       0.02476772 Ry

     iteration #227     ecut=    40.00 Ry     beta= 0.50
     Davidson diagonalization with overlap
     c_bands:  2 eigenvalues not converged
     ethr =  5.46E-08,  avg # of iterations =  5.9

     total cpu time spent up to now is     1441.5 secs

     total energy              =     -88.62813055 Ry
     Harris-Foulkes estimate   =     -88.62829327 Ry
     estimated scf accuracy    <       0.01355694 Ry

     iteration #228     ecut=    40.00 Ry     beta= 0.50
     Davidson diagonalization with overlap
     ethr =  5.46E-08,  avg # of iterations =  1.9

     total cpu time spent up to now is     1448.6 secs

     total energy              =     -88.62773721 Ry
     Harris-Foulkes estimate   =     -88.62813224 Ry
     estimated scf accuracy    <       0.01285424 Ry

     iteration #229     ecut=    40.00 Ry     beta= 0.50
     Davidson diagonalization with overlap
     ethr =  5.46E-08,  avg # of iterations =  2.9

     total cpu time spent up to now is     1458.4 secs

     total energy              =     -88.62772295 Ry
     Harris-Foulkes estimate   =     -88.62774999 Ry
     estimated scf accuracy    <       0.01090772 Ry

     iteration #230     ecut=    40.00 Ry     beta= 0.50
     Davidson diagonalization with overlap
     ethr =  5.46E-08,  avg # of iterations =  1.0

     total cpu time spent up to now is     1464.1 secs

     total energy              =     -88.62837058 Ry
     Harris-Foulkes estimate   =     -88.62772306 Ry
     estimated scf accuracy    <       0.01080651 Ry

     iteration #231     ecut=    40.00 Ry     beta= 0.50
     Davidson diagonalization with overlap
     ethr =  5.46E-08,  avg # of iterations =  3.6

     total cpu time spent up to now is     1475.3 secs

     total energy              =     -88.62874376 Ry
     Harris-Foulkes estimate   =     -88.62840454 Ry
     estimated scf accuracy    <       0.01411343 Ry

     iteration #232     ecut=    40.00 Ry     beta= 0.50
     Davidson diagonalization with overlap
     ethr =  5.46E-08,  avg # of iterations =  3.9

     total cpu time spent up to now is     1487.4 secs

     total energy              =     -88.62929945 Ry
     Harris-Foulkes estimate   =     -88.62875229 Ry
     estimated scf accuracy    <       0.01584556 Ry

     iteration #233     ecut=    40.00 Ry     beta= 0.50
     Davidson diagonalization with overlap
     ethr =  5.46E-08,  avg # of iterations =  3.3

     total cpu time spent up to now is     1498.1 secs

     total energy              =     -88.63999009 Ry
     Harris-Foulkes estimate   =     -88.62931637 Ry
     estimated scf accuracy    <       0.01858648 Ry

     iteration #234     ecut=    40.00 Ry     beta= 0.50
     Davidson diagonalization with overlap
     ethr =  5.46E-08,  avg # of iterations =  6.0

     total cpu time spent up to now is     1517.4 secs

     total energy              =     -88.62601923 Ry
     Harris-Foulkes estimate   =     -88.64415146 Ry
     estimated scf accuracy    <       0.08924583 Ry

     iteration #235     ecut=    40.00 Ry     beta= 0.50
     Davidson diagonalization with overlap
     ethr =  5.46E-08,  avg # of iterations =  5.3

     total cpu time spent up to now is     1535.6 secs

     total energy              =     -88.62241475 Ry
     Harris-Foulkes estimate   =     -88.62969163 Ry
     estimated scf accuracy    <       0.02050820 Ry

     iteration #236     ecut=    40.00 Ry     beta= 0.50
     Davidson diagonalization with overlap
     ethr =  5.46E-08,  avg # of iterations =  6.2

     total cpu time spent up to now is     1555.6 secs

     total energy              =     -88.62753348 Ry
     Harris-Foulkes estimate   =     -88.63244040 Ry
     estimated scf accuracy    <       0.03362886 Ry

     iteration #237     ecut=    40.00 Ry     beta= 0.50
     Davidson diagonalization with overlap
     ethr =  5.46E-08,  avg # of iterations =  5.2

     total cpu time spent up to now is     1573.0 secs

     total energy              =     -88.62670721 Ry
     Harris-Foulkes estimate   =     -88.62822662 Ry
     estimated scf accuracy    <       0.01334677 Ry

     iteration #238     ecut=    40.00 Ry     beta= 0.50
     Davidson diagonalization with overlap
     ethr =  5.46E-08,  avg # of iterations =  4.8

     total cpu time spent up to now is     1588.0 secs

     total energy              =     -88.62704797 Ry
     Harris-Foulkes estimate   =     -88.62707559 Ry
     estimated scf accuracy    <       0.00302230 Ry

     iteration #239     ecut=    40.00 Ry     beta= 0.50
     Davidson diagonalization with overlap
     ethr =  5.46E-08,  avg # of iterations =  1.0

     total cpu time spent up to now is     1593.9 secs

     total energy              =     -88.62703646 Ry
     Harris-Foulkes estimate   =     -88.62704824 Ry
     estimated scf accuracy    <       0.00291614 Ry

     iteration #240     ecut=    40.00 Ry     beta= 0.50
     Davidson diagonalization with overlap
     ethr =  5.46E-08,  avg # of iterations =  1.0

     total cpu time spent up to now is     1599.9 secs

     total energy              =     -88.62692409 Ry
     Harris-Foulkes estimate   =     -88.62703657 Ry
     estimated scf accuracy    <       0.00287090 Ry

     iteration #241     ecut=    40.00 Ry     beta= 0.50
     Davidson diagonalization with overlap
     ethr =  5.46E-08,  avg # of iterations =  3.0

     total cpu time spent up to now is     1610.7 secs

     total energy              =     -88.62684977 Ry
     Harris-Foulkes estimate   =     -88.62693022 Ry
     estimated scf accuracy    <       0.00234082 Ry

     iteration #242     ecut=    40.00 Ry     beta= 0.50
     Davidson diagonalization with overlap
     ethr =  5.46E-08,  avg # of iterations =  2.5

     total cpu time spent up to now is     1619.3 secs

     total energy              =     -88.62683674 Ry
     Harris-Foulkes estimate   =     -88.62685183 Ry
     estimated scf accuracy    <       0.00200389 Ry

     iteration #243     ecut=    40.00 Ry     beta= 0.50
     Davidson diagonalization with overlap
     ethr =  5.46E-08,  avg # of iterations =  1.0

     total cpu time spent up to now is     1625.3 secs

     total energy              =     -88.62686547 Ry
     Harris-Foulkes estimate   =     -88.62683699 Ry
     estimated scf accuracy    <       0.00194790 Ry

     iteration #244     ecut=    40.00 Ry     beta= 0.50
     Davidson diagonalization with overlap
     ethr =  5.46E-08,  avg # of iterations =  2.6

     total cpu time spent up to now is     1634.5 secs

     total energy              =     -88.62610268 Ry
     Harris-Foulkes estimate   =     -88.62686943 Ry
     estimated scf accuracy    <       0.00209693 Ry

     iteration #245     ecut=    40.00 Ry     beta= 0.50
     Davidson diagonalization with overlap
     c_bands:  3 eigenvalues not converged
     ethr =  5.46E-08,  avg # of iterations =  5.8

     total cpu time spent up to now is     1653.7 secs

     total energy              =     -88.62841384 Ry
     Harris-Foulkes estimate   =     -88.63107636 Ry
     estimated scf accuracy    <       0.02699372 Ry

     iteration #246     ecut=    40.00 Ry     beta= 0.50
     Davidson diagonalization with overlap
     ethr =  5.46E-08,  avg # of iterations =  4.7

     total cpu time spent up to now is     1669.7 secs

     total energy              =     -88.62553739 Ry
     Harris-Foulkes estimate   =     -88.62867433 Ry
     estimated scf accuracy    <       0.01554322 Ry

     iteration #247     ecut=    40.00 Ry     beta= 0.50
     Davidson diagonalization with overlap
     ethr =  5.46E-08,  avg # of iterations =  4.6

     total cpu time spent up to now is     1686.8 secs

     total energy              =     -88.62551225 Ry
     Harris-Foulkes estimate   =     -88.62623607 Ry
     estimated scf accuracy    <       0.00342952 Ry

     iteration #248     ecut=    40.00 Ry     beta= 0.50
     Davidson diagonalization with overlap
     ethr =  5.46E-08,  avg # of iterations =  4.1

     total cpu time spent up to now is     1701.4 secs

     total energy              =     -88.62574731 Ry
     Harris-Foulkes estimate   =     -88.62567847 Ry
     estimated scf accuracy    <       0.00060883 Ry

     iteration #249     ecut=    40.00 Ry     beta= 0.50
     Davidson diagonalization with overlap
     ethr =  5.46E-08,  avg # of iterations =  2.6

     total cpu time spent up to now is     1711.3 secs

     total energy              =     -88.62568343 Ry
     Harris-Foulkes estimate   =     -88.62575433 Ry
     estimated scf accuracy    <       0.00099220 Ry

     iteration #250     ecut=    40.00 Ry     beta= 0.50
     Davidson diagonalization with overlap
     ethr =  5.46E-08,  avg # of iterations =  2.6

     total cpu time spent up to now is     1721.0 secs

     total energy              =     -88.62567288 Ry
     Harris-Foulkes estimate   =     -88.62568823 Ry
     estimated scf accuracy    <       0.00066518 Ry

     End of self-consistent calculation

     convergence NOT achieved after 250 iterations: stopping

     Writing output data file ./pp.save/
 
     init_run     :      0.46s CPU      0.52s WALL (       1 calls)
     electrons    :   1703.08s CPU   1720.45s WALL (       2 calls)
     update_pot   :      0.01s CPU      0.01s WALL (       1 calls)
     forces       :      0.02s CPU      0.02s WALL (       1 calls)
     stress       :      0.01s CPU      0.01s WALL (       1 calls)

     Called by init_run:
     wfcinit      :      0.42s CPU      0.45s WALL (       1 calls)
     potinit      :      0.02s CPU      0.03s WALL (       1 calls)
     hinit0       :      0.01s CPU      0.03s WALL (       1 calls)

     Called by electrons:
     c_bands      :   1657.78s CPU   1674.04s WALL (     291 calls)
     sum_band     :     33.24s CPU     33.79s WALL (     291 calls)
     v_of_rho     :      2.19s CPU      2.25s WALL (     292 calls)
     newd         :      0.46s CPU      0.46s WALL (     292 calls)
     mix_rho      :      8.57s CPU      8.62s WALL (     291 calls)

     Called by c_bands:
     init_us_2    :      0.08s CPU      0.09s WALL (    7020 calls)
     cegterg      :   1654.67s CPU   1669.42s WALL (    3492 calls)

     Called by sum_band:
     sum_band:bec :      0.05s CPU      0.05s WALL (    3492 calls)
     addusdens    :      0.03s CPU      0.04s WALL (     291 calls)

     Called by *egterg:
     h_psi        :    193.37s CPU    196.38s WALL (   15230 calls)
     s_psi        :      0.30s CPU      0.31s WALL (   15230 calls)
     g_psi        :      0.02s CPU      0.02s WALL (   11726 calls)
     cdiaghg      :    605.83s CPU    609.37s WALL (   15194 calls)

     Called by h_psi:
     h_psi:calbec :     17.47s CPU     17.67s WALL (   15230 calls)
     vloc_psi     :    175.40s CPU    178.20s WALL (   15230 calls)
     add_vuspsi   :      0.41s CPU      0.42s WALL (   15230 calls)

     General routines
     calbec       :     21.34s CPU     21.58s WALL (   18782 calls)
     fft          :      1.46s CPU      1.49s WALL (    3222 calls)
     ffts         :      0.08s CPU      0.09s WALL (     291 calls)
     fftw         :    203.12s CPU    206.37s WALL (  499266 calls)
     davcio       :      0.00s CPU      0.00s WALL (      30 calls)
 
     Parallel routines
     fft_scatt_xy :      1.29s CPU      1.32s WALL (  502779 calls)
     fft_scatt_yz :    199.10s CPU    202.31s WALL (  502779 calls)
 
     PWSCF        :  28m23.88s CPU  28m41.40s WALL

 
   This run was terminated on:   0:44:35  10Jul2022            

=------------------------------------------------------------------------------=
   JOB DONE.
=------------------------------------------------------------------------------=
