
     Program PWSCF v.6.5 starts on  9Jul2022 at 14:26:16 

     This program is part of the open-source Quantum ESPRESSO suite
     for quantum simulation of materials; please cite
         "P. Giannozzi et al., J. Phys.:Condens. Matter 21 395502 (2009);
         "P. Giannozzi et al., J. Phys.:Condens. Matter 29 465901 (2017);
          URL http://www.quantum-espresso.org", 
     in publications or presentations arising from this work. More details at
     http://www.quantum-espresso.org/quote

     Parallel version (MPI), running on    96 processors

     MPI processes distributed on     2 nodes
     R & G space division:  proc/nbgrp/npool/nimage =      96
     Waiting for input...
     Reading input from standard input
     Message from routine read_cards :
     DEPRECATED: no units specified in CELL_PARAMETERS card

     Current dimensions of program PWSCF are:
     Max number of different atomic species (ntypx) = 10
     Max number of k-points (npk) =  40000
     Max angular momentum in pseudopotentials (lmaxx) =  3

     Subspace diagonalization in iterative solution of the eigenvalue problem:
     one sub-group per band group will be used
     scalapack distributed-memory algorithm (size of sub-group:  9*  9 procs)

 
     Parallelization info
     --------------------
     sticks:   dense  smooth     PW     G-vecs:    dense   smooth      PW
     Min          15      15      4                  195      195      31
     Max          16      16      6                  198      198      35
     Sum        1501    1501    455                18811    18811    3121
 


     bravais-lattice index     =            0
     lattice parameter (alat)  =      12.7705  a.u.
     unit-cell volume          =     549.9130 (a.u.)^3
     number of atoms/cell      =            8
     number of atomic types    =            1
     number of electrons       =        32.00
     number of Kohn-Sham states=           20
     kinetic-energy cutoff     =      40.0000  Ry
     charge density cutoff     =     160.0000  Ry
     convergence threshold     =      1.0E-08
     mixing beta               =       0.5000
     number of iterations used =            8  plain     mixing
     Exchange-correlation=  SLA  PW   PBE  PBE
                           (   1   4   3   4   0   0   0)
     nstep                     =          250


     celldm(1)=  12.770516  celldm(2)=   0.000000  celldm(3)=   0.000000
     celldm(4)=   0.000000  celldm(5)=   0.000000  celldm(6)=   0.000000

     crystal axes: (cart. coord. in units of alat)
               a(1) = (   0.999255  -0.038597   0.000149 )  
               a(2) = (  -0.010031   0.724810   0.000368 )  
               a(3) = (   0.000086   0.000000   0.364754 )  

     reciprocal axes: (cart. coord. in units 2 pi/alat)
               b(1) = (  1.001281  0.013857 -0.000236 )  
               b(2) = (  0.053319  1.380409 -0.000013 )  
               b(3) = ( -0.000462 -0.001398  2.741572 )  


     PseudoPot. # 1 for C  read from file:
     ./C.pbe-van_bm.upf
     MD5 check sum: 1a69bf6b8db32088f5b2163dbdb77a27
     Pseudo is Ultrasoft, Zval =  4.0
     Generated by new atomic code, or converted to UPF format
     Using radial grid of  721 points,  4 beta functions with: 
                l(1) =   0
                l(2) =   0
                l(3) =   1
                l(4) =   1
     Q(r) pseudized with  8 coefficients,  rinner =    0.800   0.800   0.800


     atomic species   valence    mass     pseudopotential
        C              4.00    12.00000     C ( 1.00)

     No symmetry found



   Cartesian axes

     site n.     atom                  positions (alat units)
         1           C   tau(   1) = (   0.4548680   0.6826441   0.5124906  )
         2           C   tau(   2) = (   0.7899744   0.4276211   0.1477233  )
         3           C   tau(   3) = (  -0.0405780   0.3385861   0.1476207  )
         4           C   tau(   4) = (   0.2960288   0.0854140  -0.2173252  )
         5           C   tau(   5) = (   1.0424984   0.2369371   0.3301282  )
         6           C   tau(   6) = (   0.7065691   0.4910685   0.3301126  )
         7           C   tau(   7) = (   0.2122746   0.1484562  -0.0349319  )
         8           C   tau(   8) = (   0.5484072  -0.1056142   0.6944869  )

     number of k points=    16  Marzari-Vanderbilt smearing, width (Ry)=  0.0200
                       cart. coord. in units 2pi/alat
        k(    1) = (   0.0000000   0.0000000   0.0000000), wk =   0.0666667
        k(    2) = (  -0.0000924  -0.0002797   0.5483144), wk =   0.1333333
        k(    3) = (  -0.0001849  -0.0005594   1.0966288), wk =   0.1333333
        k(    4) = (   0.0177730   0.4601365  -0.0000042), wk =   0.1333333
        k(    5) = (   0.0176806   0.4598568   0.5483102), wk =   0.1333333
        k(    6) = (   0.0175881   0.4595771   1.0966246), wk =   0.1333333
        k(    7) = (   0.0179579   0.4606959  -1.0966330), wk =   0.1333333
        k(    8) = (   0.0178654   0.4604162  -0.5483186), wk =   0.1333333
        k(    9) = (  -0.5006405  -0.0069286   0.0001182), wk =   0.0666667
        k(   10) = (  -0.5007329  -0.0072083   0.5484326), wk =   0.1333333
        k(   11) = (  -0.5008254  -0.0074880   1.0967470), wk =   0.1333333
        k(   12) = (  -0.4828675   0.4532079   0.0001140), wk =   0.1333333
        k(   13) = (  -0.4829599   0.4529282   0.5484284), wk =   0.1333333
        k(   14) = (  -0.4830524   0.4526485   1.0967428), wk =   0.1333333
        k(   15) = (  -0.4826826   0.4537673  -1.0965148), wk =   0.1333333
        k(   16) = (  -0.4827750   0.4534876  -0.5482004), wk =   0.1333333

     Dense  grid:    18811 G-vectors     FFT dimensions: (  54,  40,  20)

     Estimated max dynamical RAM per process >       1.47 MB

     Estimated total dynamical RAM >     140.83 MB

     Initial potential from superposition of free atoms

     starting charge   31.99968, renormalised to   32.00000
     Starting wfcs are   32 randomized atomic wfcs

     total cpu time spent up to now is        0.6 secs

     Self-consistent Calculation

     iteration #  1     ecut=    40.00 Ry     beta= 0.50
     Davidson diagonalization with overlap
     ethr =  1.00E-02,  avg # of iterations =  2.2

     total cpu time spent up to now is        1.5 secs

     total energy              =     -91.11761440 Ry
     Harris-Foulkes estimate   =     -91.49715485 Ry
     estimated scf accuracy    <       0.77814507 Ry

     iteration #  2     ecut=    40.00 Ry     beta= 0.50
     Davidson diagonalization with overlap
     ethr =  2.43E-03,  avg # of iterations =  2.4

     total cpu time spent up to now is        2.3 secs

     total energy              =     -91.14665068 Ry
     Harris-Foulkes estimate   =     -91.17911974 Ry
     estimated scf accuracy    <       0.07191110 Ry

     iteration #  3     ecut=    40.00 Ry     beta= 0.50
     Davidson diagonalization with overlap
     ethr =  2.25E-04,  avg # of iterations =  3.8

     total cpu time spent up to now is        3.4 secs

     total energy              =     -91.15800560 Ry
     Harris-Foulkes estimate   =     -91.15801015 Ry
     estimated scf accuracy    <       0.00203145 Ry

     iteration #  4     ecut=    40.00 Ry     beta= 0.50
     Davidson diagonalization with overlap
     ethr =  6.35E-06,  avg # of iterations =  3.8

     total cpu time spent up to now is        4.5 secs

     total energy              =     -91.15818936 Ry
     Harris-Foulkes estimate   =     -91.15825591 Ry
     estimated scf accuracy    <       0.00016928 Ry

     iteration #  5     ecut=    40.00 Ry     beta= 0.50
     Davidson diagonalization with overlap
     ethr =  5.29E-07,  avg # of iterations =  2.2

     total cpu time spent up to now is        5.3 secs

     total energy              =     -91.15822385 Ry
     Harris-Foulkes estimate   =     -91.15822538 Ry
     estimated scf accuracy    <       0.00000600 Ry

     iteration #  6     ecut=    40.00 Ry     beta= 0.50
     Davidson diagonalization with overlap
     ethr =  1.87E-08,  avg # of iterations =  2.5

     total cpu time spent up to now is        6.2 secs

     total energy              =     -91.15822452 Ry
     Harris-Foulkes estimate   =     -91.15822513 Ry
     estimated scf accuracy    <       0.00000161 Ry

     iteration #  7     ecut=    40.00 Ry     beta= 0.50
     Davidson diagonalization with overlap
     ethr =  5.02E-09,  avg # of iterations =  2.0

     total cpu time spent up to now is        6.9 secs

     total energy              =     -91.15822477 Ry
     Harris-Foulkes estimate   =     -91.15822476 Ry
     estimated scf accuracy    <       0.00000001 Ry

     iteration #  8     ecut=    40.00 Ry     beta= 0.50
     Davidson diagonalization with overlap
     ethr =  4.21E-11,  avg # of iterations =  3.0

     total cpu time spent up to now is        8.0 secs

     End of self-consistent calculation

          k = 0.0000 0.0000 0.0000 (  2349 PWs)   bands (ev):

   -14.0245 -12.4932 -12.4931  -8.7741  -7.6464  -1.8840  -1.8839  -1.6079
    -0.9049  -0.6029  -0.6029   0.4576   0.4577   2.4322   2.5615   3.0476
     7.1582   8.9563  12.8228  12.8232

          k =-0.0001-0.0003 0.5483 (  2358 PWs)   bands (ev):

   -13.3159 -11.8023 -11.8021  -8.1691  -7.0881  -3.3378  -2.6148  -2.6144
    -1.0887  -1.0882  -0.7828   0.1705   0.2113   0.2120   1.1363   3.9106
     6.8733   9.8661  11.5031  11.5042

          k =-0.0002-0.0006 1.0966 (  2342 PWs)   bands (ev):

   -11.2307  -9.7888  -9.7884  -8.0266  -6.3679  -6.3577  -6.3576  -4.6052
    -3.4537  -1.8772  -0.9487  -0.9486   1.5659   2.3327   2.3337   4.7824
     6.4369   7.9167   7.9189  10.3504

          k = 0.0178 0.4601-0.0000 (  2362 PWs)   bands (ev):

   -13.8253 -13.2865 -11.4263 -10.0408  -6.1577  -4.0789  -1.7967  -1.6846
    -0.7394  -0.2651   0.2357   1.1512   1.3181   1.9003   2.0969   2.5529
     8.1745  10.4379  10.4711  12.7583

          k = 0.0177 0.4599 0.5483 (  2347 PWs)   bands (ev):

   -13.1198 -12.5878 -10.7484  -9.3921  -5.7154  -3.9845  -3.1196  -2.4120
    -1.4940  -0.9606  -0.8446  -0.4330   0.3464   1.1063   1.9184   3.3375
     7.7870   9.6184  11.3382  13.1610

          k = 0.0176 0.4596 1.0966 (  2345 PWs)   bands (ev):

   -11.0446 -10.5368  -8.8353  -8.0531  -7.0782  -7.0446  -5.3957  -4.2488
    -3.5880  -2.0918  -1.2239  -0.6448   1.4133   1.5033   3.4765   4.3333
     6.7789   7.1647   9.2123  10.1280

          k = 0.0180 0.4607-1.0966 (  2345 PWs)   bands (ev):

   -11.0444 -10.5368  -8.8357  -8.0529  -7.0787  -7.0443  -5.3956  -4.2487
    -3.5880  -2.0919  -1.2239  -0.6447   1.4113   1.5041   3.4766   4.3354
     6.7794   7.1649   9.2107  10.1272

          k = 0.0179 0.4604-0.5483 (  2348 PWs)   bands (ev):

   -13.1197 -12.5878 -10.7485  -9.3921  -5.7156  -3.9841  -3.1196  -2.4123
    -1.4943  -0.9618  -0.8441  -0.4329   0.3467   1.1061   1.9190   3.3381
     7.7875   9.6181  11.3425  13.1599

          k =-0.5006-0.0069 0.0001 (  2380 PWs)   bands (ev):

   -13.6325 -13.6304 -10.7026 -10.7017  -5.1722  -5.1709  -1.4492  -1.4444
    -0.5441  -0.5420   1.1562   1.1574   1.2777   1.2785   1.7449   1.7463
     9.4957   9.4973  10.3035  10.3158

          k =-0.5007-0.0072 0.5484 (  2345 PWs)   bands (ev):

   -12.9281 -12.9260 -10.0408 -10.0399  -4.8564  -4.8550  -2.8511  -2.8492
    -0.9286  -0.9276  -0.6235  -0.6187   0.8383   0.8393   2.0691   2.0700
     8.9443   8.9464  11.1807  11.1934

          k =-0.5008-0.0075 1.0967 (  2342 PWs)   bands (ev):

   -10.8575 -10.8554  -8.3116  -8.3103  -7.2210  -7.2196  -4.7967  -4.7958
    -2.8477  -2.8466  -0.8602  -0.8593   1.6823   1.6866   3.6923   3.6935
     6.9770   6.9794   9.3912   9.3921

          k =-0.4829 0.4532 0.0001 (  2354 PWs)   bands (ev):

   -13.9027 -13.0021 -11.9954  -9.2567  -7.1280  -2.9719  -2.3693  -0.8540
    -0.7756  -0.4453   0.0597   0.2142   0.8813   2.3426   2.3840   2.8436
     7.7326  10.3110  11.5210  12.5592

          k =-0.4830 0.4529 0.5484 (  2348 PWs)   bands (ev):

   -13.1985 -12.3028 -11.3101  -8.6327  -6.6007  -3.2637  -3.2529  -2.0418
    -1.8224  -1.5165  -0.3137  -0.0089   0.3527   1.0099   1.1532   3.6614
     7.2827  10.6808  11.2173  12.2905

          k =-0.4831 0.4526 1.0967 (  2351 PWs)   bands (ev):

   -11.1261 -10.2554  -9.3344  -7.9752  -6.7860  -6.6339  -5.9050  -4.2912
    -3.7085  -1.6638  -1.4327  -0.6623   0.9278   2.4669   2.9870   4.2592
     6.5750   7.8867   8.6261  10.2947

          k =-0.4827 0.4538-1.0965 (  2351 PWs)   bands (ev):

   -11.1259 -10.2555  -9.3343  -7.9755  -6.7863  -6.6338  -5.9048  -4.2912
    -3.7084  -1.6639  -1.4327  -0.6624   0.9267   2.4660   2.9889   4.2603
     6.5758   7.8871   8.6244  10.2939

          k =-0.4828 0.4535-0.5482 (  2350 PWs)   bands (ev):

   -13.1985 -12.3028 -11.3101  -8.6329  -6.6005  -3.2638  -3.2534  -2.0414
    -1.8221  -1.5172  -0.3141  -0.0090   0.3522   1.0110   1.1533   3.6618
     7.2832  10.6806  11.2182  12.2895

     the Fermi energy is     5.0138 ev

!    total energy              =     -91.15822477 Ry
     Harris-Foulkes estimate   =     -91.15822478 Ry
     estimated scf accuracy    <          3.9E-09 Ry

     The total energy is the sum of the following terms:

     one-electron contribution =     -46.36790036 Ry
     hartree contribution      =      37.15461819 Ry
     xc contribution           =     -27.96490759 Ry
     ewald contribution        =     -53.98040127 Ry
     smearing contrib. (-TS)   =       0.00036625 Ry

     convergence has been achieved in   8 iterations

     Forces acting on atoms (cartesian axes, Ry/au):

     atom    1 type  1   force =    -0.01448358    0.01085759    0.00016441
     atom    2 type  1   force =     0.01480544   -0.01112584    0.00011693
     atom    3 type  1   force =    -0.01433621    0.01122524   -0.00020870
     atom    4 type  1   force =     0.01404419   -0.01100997   -0.00011009
     atom    5 type  1   force =     0.01452992   -0.01097974   -0.00033128
     atom    6 type  1   force =    -0.01430716    0.01112950   -0.00005626
     atom    7 type  1   force =    -0.01447691    0.01096774    0.00034761
     atom    8 type  1   force =     0.01422431   -0.01106454    0.00007738

     Total force =     0.051340     Total SCF correction =     0.000056


     Computing stress (Cartesian axis) and pressure

          total   stress  (Ry/bohr**3)                   (kbar)     P=        0.61
  -0.00011975   0.00008698  -0.00000037          -17.62       12.80       -0.05
   0.00008698  -0.00007722   0.00000031           12.80      -11.36        0.05
  -0.00000037   0.00000031   0.00020949           -0.05        0.05       30.82


     BFGS Geometry Optimization

     number of scf cycles    =   1
     number of bfgs steps    =   0

     enthalpy new            =     -91.1581873925 Ry

     new trust radius        =       0.0245547016 bohr
     new conv_thr            =       0.0000000100 Ry

     new unit-cell volume =    550.06867 a.u.^3 (    81.51177 Ang^3 )
     density =      1.95569 g/cm^3

CELL_PARAMETERS (bohr)
  12.721702958  -0.464199168   0.001789127
  -0.107588998   9.238036073   0.004796690
   0.001053981   0.000038076   4.682487381

ATOMIC_POSITIONS (crystal)
C             0.4636651835        0.9676881634        1.4038996308
C             0.7980257560        0.6312701848        0.4040567855
C            -0.0370848563        0.4663755191        0.4042124860
C             0.2987321994        0.1325615314       -0.5960919374
C             1.0481663205        0.3815248274        0.9041865564
C             0.7130913152        0.7166882921        0.9040012207
C             0.2134888229        0.2173740977       -0.0960000515
C             0.5485852588       -0.1176956159        1.9038973096



     Writing output data file ./pp.save/
     NEW-OLD atomic charge density approx. for the potential
     extrapolated charge   32.00905, renormalised to   32.00000

     total cpu time spent up to now is        8.2 secs

     Self-consistent Calculation

     iteration #  1     ecut=    40.00 Ry     beta= 0.50
     Davidson diagonalization with overlap
     ethr =  1.00E-06,  avg # of iterations =  5.4

     total cpu time spent up to now is       10.1 secs

     total energy              =     -91.15731601 Ry
     Harris-Foulkes estimate   =     -91.14719323 Ry
     estimated scf accuracy    <       0.00115826 Ry

     iteration #  2     ecut=    40.00 Ry     beta= 0.50
     Davidson diagonalization with overlap
     ethr =  3.62E-06,  avg # of iterations =  1.1

     total cpu time spent up to now is       10.7 secs

     total energy              =     -91.15731172 Ry
     Harris-Foulkes estimate   =     -91.15738752 Ry
     estimated scf accuracy    <       0.00013934 Ry

     iteration #  3     ecut=    40.00 Ry     beta= 0.50
     Davidson diagonalization with overlap
     ethr =  4.35E-07,  avg # of iterations =  2.2

     total cpu time spent up to now is       11.5 secs

     total energy              =     -91.15733848 Ry
     Harris-Foulkes estimate   =     -91.15733890 Ry
     estimated scf accuracy    <       0.00000265 Ry

     iteration #  4     ecut=    40.00 Ry     beta= 0.50
     Davidson diagonalization with overlap
     ethr =  8.28E-09,  avg # of iterations =  2.2

     total cpu time spent up to now is       12.4 secs

     total energy              =     -91.15733901 Ry
     Harris-Foulkes estimate   =     -91.15733905 Ry
     estimated scf accuracy    <       0.00000070 Ry

     iteration #  5     ecut=    40.00 Ry     beta= 0.50
     Davidson diagonalization with overlap
     ethr =  2.18E-09,  avg # of iterations =  2.0

     total cpu time spent up to now is       13.2 secs

     total energy              =     -91.15733907 Ry
     Harris-Foulkes estimate   =     -91.15733917 Ry
     estimated scf accuracy    <       0.00000030 Ry

     iteration #  6     ecut=    40.00 Ry     beta= 0.50
     Davidson diagonalization with overlap
     ethr =  9.22E-10,  avg # of iterations =  2.0

     total cpu time spent up to now is       14.0 secs

     End of self-consistent calculation

          k = 0.0000 0.0000 0.0000 (  2349 PWs)   bands (ev):

   -14.0225 -12.4806 -12.4804  -8.5930  -7.8311  -1.9681  -1.9679  -1.6065
    -0.8848  -0.5705  -0.5703   0.5509   0.5511   2.2901   2.6989   3.2693
     6.9302   8.9570  12.8163  12.8167

          k =-0.0001-0.0003 0.5455 (  2358 PWs)   bands (ev):

   -13.3201 -11.7956 -11.7954  -7.9855  -7.3040  -3.2985  -2.7008  -2.7000
    -1.0026  -1.0018  -0.7976   0.2241   0.2251   0.4056   0.8782   4.1207
     6.6375   9.8523  11.4477  11.4483

          k =-0.0002-0.0006 1.0909 (  2342 PWs)   bands (ev):

   -11.2559  -9.8112  -9.8110  -8.1275  -6.3398  -6.3393  -6.1766  -4.7017
    -3.2472  -2.0824  -0.9521  -0.9517   1.4984   2.2672   2.2691   4.6179
     6.6120   7.9683   7.9696  10.4661

          k = 0.0168 0.4610-0.0000 (  2362 PWs)   bands (ev):

   -13.8221 -13.2798 -11.4037  -9.9954  -6.2132  -4.1325  -1.7926  -1.6714
    -0.7115  -0.2134   0.0905   1.2234   1.4731   1.6735   2.3250   2.7034
     8.0107  10.3510  10.4764  12.7649

          k = 0.0167 0.4607 0.5455 (  2347 PWs)   bands (ev):

   -13.1227 -12.5870 -10.7320  -9.3531  -5.8016  -4.0863  -3.0647  -2.3175
    -1.5198  -0.9726  -0.8479  -0.3707   0.3682   1.0274   1.9632   3.4554
     7.6411   9.5409  11.3254  13.1218

          k = 0.0166 0.4604 1.0909 (  2345 PWs)   bands (ev):

   -11.0689 -10.5592  -8.8735  -8.1602  -7.0107  -6.9531  -5.3619  -4.1652
    -3.6113  -2.0926  -1.3046  -0.6710   1.3484   1.4424   3.3847   4.2046
     6.9193   7.2550   9.2774  10.2294

          k = 0.0170 0.4616-1.0909 (  2345 PWs)   bands (ev):

   -11.0687 -10.5594  -8.8733  -8.1608  -7.0111  -6.9525  -5.3615  -4.1654
    -3.6116  -2.0923  -1.3044  -0.6712   1.3466   1.4428   3.3858   4.2057
     6.9210   7.2540   9.2764  10.2283

          k = 0.0169 0.4613-0.5455 (  2348 PWs)   bands (ev):

   -13.1225 -12.5871 -10.7320  -9.3532  -5.8013  -4.0868  -3.0651  -2.3168
    -1.5192  -0.9737  -0.8476  -0.3713   0.3675   1.0280   1.9641   3.4556
     7.6421   9.5399  11.3298  13.1209

          k =-0.5021-0.0058 0.0001 (  2380 PWs)   bands (ev):

   -13.6275 -13.6261 -10.6715 -10.6707  -5.2210  -5.2204  -1.4408  -1.4356
    -0.5063  -0.5049   0.9705   0.9720   1.3680   1.3689   1.9372   1.9390
     9.3966   9.3980  10.3117  10.3239

          k =-0.5022-0.0061 0.5456 (  2345 PWs)   bands (ev):

   -12.9291 -12.9278 -10.0161 -10.0152  -4.9455  -4.9447  -2.7775  -2.7762
    -0.9168  -0.9154  -0.6321  -0.6269   0.8167   0.8182   2.1329   2.1338
     8.8476   8.8491  11.1733  11.1858

          k =-0.5023-0.0064 1.0910 (  2342 PWs)   bands (ev):

   -10.8806 -10.8793  -8.3862  -8.3852  -7.1431  -7.1420  -4.7439  -4.7428
    -2.8554  -2.8548  -0.9081  -0.9072   1.6162   1.6210   3.6051   3.6069
     7.0595   7.0612   9.4713   9.4719

          k =-0.4853 0.4551 0.0001 (  2354 PWs)   bands (ev):

   -13.9002 -12.9929 -11.9785  -9.1725  -7.2170  -3.0376  -2.3684  -0.8876
    -0.8314  -0.4207   0.1292   0.2630   1.0031   2.1256   2.5986   3.0271
     7.5345  10.3268  11.4805  12.5619

          k =-0.4854 0.4549 0.5456 (  2348 PWs)   bands (ev):

   -13.2021 -12.2996 -11.2992  -8.5539  -6.7147  -3.3569  -3.2203  -2.0978
    -1.7216  -1.5308  -0.2588   0.1362   0.3575   0.9867   1.0370   3.8170
     7.0982  10.6209  11.2230  12.2635

          k =-0.4855 0.4546 1.0910 (  2351 PWs)   bands (ev):

   -11.1507 -10.2776  -9.3611  -8.0810  -6.7661  -6.4756  -5.8819  -4.3487
    -3.5649  -1.8057  -1.4325  -0.6750   0.8641   2.3983   2.9198   4.1131
     6.7377   7.9466   8.6970  10.4040

          k =-0.4851 0.4557-1.0908 (  2351 PWs)   bands (ev):

   -11.1506 -10.2774  -9.3614  -8.0810  -6.7657  -6.4761  -5.8820  -4.3484
    -3.5646  -1.8059  -1.4328  -0.6747   0.8629   2.3981   2.9207   4.1147
     6.7378   7.9482   8.6943  10.4033

          k =-0.4852 0.4554-0.5454 (  2350 PWs)   bands (ev):

   -13.2020 -12.2996 -11.2993  -8.5538  -6.7148  -3.3562  -3.2203  -2.0983
    -1.7224  -1.5315  -0.2580   0.1367   0.3573   0.9861   1.0378   3.8178
     7.0981  10.6214  11.2239  12.2619

     the Fermi energy is     4.8323 ev

!    total energy              =     -91.15733912 Ry
     Harris-Foulkes estimate   =     -91.15733912 Ry
     estimated scf accuracy    <          1.7E-09 Ry

     The total energy is the sum of the following terms:

     one-electron contribution =     -46.31841195 Ry
     hartree contribution      =      37.12586643 Ry
     xc contribution           =     -27.96257479 Ry
     ewald contribution        =     -54.00272121 Ry
     smearing contrib. (-TS)   =       0.00050240 Ry

     convergence has been achieved in   6 iterations

     Forces acting on atoms (cartesian axes, Ry/au):

     atom    1 type  1   force =     0.02380013   -0.01814534    0.00000413
     atom    2 type  1   force =    -0.02418675    0.01842858   -0.00007099
     atom    3 type  1   force =     0.02453196   -0.01815596   -0.00026074
     atom    4 type  1   force =    -0.02419029    0.01789046    0.00035526
     atom    5 type  1   force =    -0.02419163    0.01817813   -0.00006531
     atom    6 type  1   force =     0.02430158   -0.01824910    0.00009913
     atom    7 type  1   force =     0.02403308   -0.01803686   -0.00019922
     atom    8 type  1   force =    -0.02409808    0.01809009    0.00013774

     Total force =     0.085484     Total SCF correction =     0.000033


     Computing stress (Cartesian axis) and pressure

          total   stress  (Ry/bohr**3)                   (kbar)     P=        0.18
   0.00014815  -0.00011656   0.00000037           21.79      -17.15        0.05
  -0.00011656   0.00007451  -0.00000033          -17.15       10.96       -0.05
   0.00000037  -0.00000033  -0.00021898            0.05       -0.05      -32.21


     number of scf cycles    =   2
     number of bfgs steps    =   1

     enthalpy old            =     -91.1581873925 Ry
     enthalpy new            =     -91.1573017236 Ry

     CASE: enthalpy_new > enthalpy_old

     new trust radius        =       0.0098693689 bohr
     new conv_thr            =       0.0000000100 Ry

     new unit-cell volume =    549.97918 a.u.^3 (    81.49851 Ang^3 )
     density =      1.95601 g/cm^3

CELL_PARAMETERS (bohr)
  12.745124737  -0.481305405   0.001855209
  -0.119813942   9.248862116   0.004739061
   0.001081409   0.000015382   4.667952042

ATOMIC_POSITIONS (crystal)
C             0.4643349993        0.9670246970        1.4038789902
C             0.7973410757        0.6319501322        0.4040414168
C            -0.0364221690        0.4656880000        0.4042396132
C             0.2980830160        0.1332359080       -0.5960782663
C             1.0474944162        0.3821960475        0.9042285421
C             0.7137527083        0.7160068684        0.9040088374
C             0.2141582576        0.2167035182       -0.0960441262
C             0.5479276958       -0.1170181714        1.9038869927



     Writing output data file ./pp.save/
     NEW-OLD atomic charge density approx. for the potential
     extrapolated charge   31.99479, renormalised to   32.00000

     total cpu time spent up to now is       14.0 secs

     Self-consistent Calculation

     iteration #  1     ecut=    40.00 Ry     beta= 0.50
     Davidson diagonalization with overlap
     ethr =  1.00E-06,  avg # of iterations =  4.7

     total cpu time spent up to now is       15.8 secs

     total energy              =     -91.15897423 Ry
     Harris-Foulkes estimate   =     -91.16534436 Ry
     estimated scf accuracy    <       0.00042002 Ry

     iteration #  2     ecut=    40.00 Ry     beta= 0.50
     Davidson diagonalization with overlap
     ethr =  1.31E-06,  avg # of iterations =  1.4

     total cpu time spent up to now is       16.5 secs

     total energy              =     -91.15897597 Ry
     Harris-Foulkes estimate   =     -91.15900278 Ry
     estimated scf accuracy    <       0.00004939 Ry

     iteration #  3     ecut=    40.00 Ry     beta= 0.50
     Davidson diagonalization with overlap
     ethr =  1.54E-07,  avg # of iterations =  2.0

     total cpu time spent up to now is       17.5 secs

     total energy              =     -91.15898598 Ry
     Harris-Foulkes estimate   =     -91.15898610 Ry
     estimated scf accuracy    <       0.00000096 Ry

     iteration #  4     ecut=    40.00 Ry     beta= 0.50
     Davidson diagonalization with overlap
     ethr =  3.01E-09,  avg # of iterations =  2.2

     total cpu time spent up to now is       18.5 secs

     total energy              =     -91.15898620 Ry
     Harris-Foulkes estimate   =     -91.15898621 Ry
     estimated scf accuracy    <       0.00000026 Ry

     iteration #  5     ecut=    40.00 Ry     beta= 0.50
     Davidson diagonalization with overlap
     ethr =  8.16E-10,  avg # of iterations =  2.0

     total cpu time spent up to now is       19.3 secs

     total energy              =     -91.15898622 Ry
     Harris-Foulkes estimate   =     -91.15898626 Ry
     estimated scf accuracy    <       0.00000012 Ry

     iteration #  6     ecut=    40.00 Ry     beta= 0.50
     Davidson diagonalization with overlap
     ethr =  3.61E-10,  avg # of iterations =  2.0

     total cpu time spent up to now is       20.2 secs

     End of self-consistent calculation

          k = 0.0000 0.0000 0.0000 (  2349 PWs)   bands (ev):

   -14.0230 -12.4871 -12.4871  -8.7009  -7.7202  -1.9176  -1.9176  -1.6065
    -0.8951  -0.5889  -0.5888   0.4970   0.4971   2.4513   2.5400   3.1370
     7.0665   8.9565  12.8218  12.8222

          k =-0.0001-0.0003 0.5472 (  2358 PWs)   bands (ev):

   -13.3169 -11.7984 -11.7983  -8.0949  -7.1745  -3.3210  -2.6476  -2.6474
    -1.0545  -1.0545  -0.7880   0.2174   0.2182   0.2657   1.0315   3.9953
     6.7783   9.8606  11.4802  11.4810

          k =-0.0002-0.0006 1.0943 (  2342 PWs)   bands (ev):

   -11.2398  -9.7960  -9.7958  -8.0648  -6.3497  -6.3495  -6.2906  -4.6457
    -3.3701  -1.9607  -0.9515  -0.9514   1.5394   2.3073   2.3086   4.7165
     6.5073   7.9370   7.9388  10.3965

          k = 0.0174 0.4605-0.0000 (  2362 PWs)   bands (ev):

   -13.8233 -13.2830 -11.4159 -10.0203  -6.1814  -4.1008  -1.7942  -1.6785
    -0.7265  -0.2426   0.1775   1.1816   1.3821   1.8087   2.1898   2.6149
     8.1072  10.4018  10.4735  12.7626

          k = 0.0173 0.4602 0.5472 (  2347 PWs)   bands (ev):

   -13.1202 -12.5866 -10.7403  -9.3738  -5.7519  -4.0262  -3.0965  -2.3729
    -1.5000  -0.9647  -0.8451  -0.4001   0.3515   1.0668   1.9379   3.3868
     7.7263   9.5857  11.3334  13.1450

          k = 0.0172 0.4599 1.0943 (  2345 PWs)   bands (ev):

   -11.0532 -10.5445  -8.8478  -8.0938  -7.0313  -7.0272  -5.3805  -4.2123
    -3.5994  -2.0936  -1.2596  -0.6574   1.3878   1.4795   3.4408   4.2827
     6.8345   7.2001   9.2382  10.1684

          k = 0.0176 0.4610-1.0943 (  2345 PWs)   bands (ev):

   -11.0530 -10.5445  -8.8479  -8.0939  -7.0313  -7.0272  -5.3803  -4.2123
    -3.5995  -2.0935  -1.2595  -0.6574   1.3859   1.4801   3.4413   4.2844
     6.8355   7.1999   9.2369  10.1676

          k = 0.0175 0.4608-0.5472 (  2348 PWs)   bands (ev):

   -13.1201 -12.5866 -10.7404  -9.3738  -5.7519  -4.0261  -3.0966  -2.3728
    -1.4999  -0.9658  -0.8447  -0.4002   0.3514   1.0669   1.9386   3.3873
     7.7270   9.5851  11.3378  13.1440

          k =-0.5012-0.0065 0.0001 (  2380 PWs)   bands (ev):

   -13.6298 -13.6279 -10.6882 -10.6878  -5.1925  -5.1916  -1.4450  -1.4400
    -0.5271  -0.5255   1.0821   1.0824   1.3155   1.3160   1.8242   1.8247
     9.4551   9.4562  10.3070  10.3193

          k =-0.5013-0.0068 0.5473 (  2345 PWs)   bands (ev):

   -12.9277 -12.9259 -10.0286 -10.0283  -4.8933  -4.8923  -2.8204  -2.8189
    -0.9173  -0.9171  -0.6262  -0.6212   0.8245   0.8247   2.0965   2.0969
     8.9041   8.9057  11.1780  11.1907

          k =-0.5014-0.0071 1.0944 (  2342 PWs)   bands (ev):

   -10.8656 -10.8638  -8.3380  -8.3372  -7.1903  -7.1892  -4.7729  -4.7727
    -2.8524  -2.8517  -0.8818  -0.8814   1.6564   1.6609   3.6588   3.6600
     7.0091   7.0111   9.4233   9.4237

          k =-0.4839 0.4540 0.0001 (  2354 PWs)   bands (ev):

   -13.9010 -12.9975 -11.9875  -9.2195  -7.1663  -2.9984  -2.3683  -0.8433
    -0.8203  -0.4344   0.0895   0.2350   0.9321   2.2792   2.4463   2.9184
     7.6520  10.3175  11.5047  12.5609

          k =-0.4839 0.4537 0.5473 (  2348 PWs)   bands (ev):

   -13.1992 -12.3006 -11.3044  -8.5969  -6.6498  -3.2946  -3.2452  -2.0612
    -1.7813  -1.5216  -0.2938   0.0578   0.3556   1.0219   1.0777   3.7256
     7.2068  10.6557  11.2198  12.2785

          k =-0.4840 0.4534 1.0944 (  2351 PWs)   bands (ev):

   -11.1349 -10.2629  -9.3429  -8.0154  -6.7777  -6.5692  -5.8946  -4.3166
    -3.6478  -1.7243  -1.4341  -0.6691   0.9028   2.4402   2.9611   4.2010
     6.6401   7.9101   8.6541  10.3383

          k =-0.4837 0.4546-1.0942 (  2351 PWs)   bands (ev):

   -11.1348 -10.2628  -9.3430  -8.0155  -6.7777  -6.5693  -5.8945  -4.3165
    -3.6476  -1.7244  -1.4341  -0.6690   0.9016   2.4396   2.9626   4.2023
     6.6406   7.9110   8.6520  10.3375

          k =-0.4838 0.4543-0.5470 (  2350 PWs)   bands (ev):

   -13.1991 -12.3006 -11.3045  -8.5970  -6.6497  -3.2946  -3.2453  -2.0611
    -1.7814  -1.5222  -0.2938   0.0579   0.3553   1.0228   1.0776   3.7262
     7.2071  10.6558  11.2207  12.2773

     the Fermi energy is     4.9437 ev

!    total energy              =     -91.15898624 Ry
     Harris-Foulkes estimate   =     -91.15898624 Ry
     estimated scf accuracy    <          6.4E-10 Ry

     The total energy is the sum of the following terms:

     one-electron contribution =     -46.34026714 Ry
     hartree contribution      =      37.13913336 Ry
     xc contribution           =     -27.96314726 Ry
     ewald contribution        =     -53.99510352 Ry
     smearing contrib. (-TS)   =       0.00039832 Ry

     convergence has been achieved in   6 iterations

     Forces acting on atoms (cartesian axes, Ry/au):

     atom    1 type  1   force =     0.00063767   -0.00060460    0.00009834
     atom    2 type  1   force =    -0.00059130    0.00055066    0.00003815
     atom    3 type  1   force =     0.00099421   -0.00037134   -0.00023167
     atom    4 type  1   force =    -0.00104565    0.00040396    0.00008494
     atom    5 type  1   force =    -0.00075541    0.00053649   -0.00022171
     atom    6 type  1   force =     0.00092975   -0.00047414    0.00000920
     atom    7 type  1   force =     0.00073096   -0.00049033    0.00011950
     atom    8 type  1   force =    -0.00090023    0.00044930    0.00010325

     Total force =     0.002773     Total SCF correction =     0.000017


     Computing stress (Cartesian axis) and pressure

          total   stress  (Ry/bohr**3)                   (kbar)     P=       -0.30
  -0.00001840   0.00000954  -0.00000006           -2.71        1.40       -0.01
   0.00000954  -0.00001991   0.00000004            1.40       -2.93        0.01
  -0.00000006   0.00000004   0.00003210           -0.01        0.01        4.72


     number of scf cycles    =   3
     number of bfgs steps    =   1

     enthalpy old            =     -91.1581873925 Ry
     enthalpy new            =     -91.1589488540 Ry

     CASE: enthalpy_new < enthalpy_old

     new trust radius        =       0.0038817164 bohr
     new conv_thr            =       0.0000000001 Ry

     new unit-cell volume =    549.88721 a.u.^3 (    81.48488 Ang^3 )
     density =      1.95634 g/cm^3

CELL_PARAMETERS (bohr)
  12.738877474  -0.477849429   0.001835873
  -0.117430326   9.244082510   0.004753382
   0.001073449   0.000020803   4.671815228

ATOMIC_POSITIONS (crystal)
C             0.4643795285        0.9669666656        1.4039005164
C             0.7973002545        0.6320023644        0.4040497686
C            -0.0363491624        0.4656570815        0.4041891700
C             0.2980058866        0.1332702566       -0.5960599546
C             1.0474405312        0.3822460986        0.9041801111
C             0.7138205125        0.7159644337        0.9040107909
C             0.2142102869        0.2166583832       -0.0960178488
C             0.5478621621       -0.1169782836        1.9039094464



     Writing output data file ./pp.save/
     NEW-OLD atomic charge density approx. for the potential
     extrapolated charge   31.99465, renormalised to   32.00000

     total cpu time spent up to now is       20.3 secs

     Self-consistent Calculation

     iteration #  1     ecut=    40.00 Ry     beta= 0.50
     Davidson diagonalization with overlap
     ethr =  1.00E-06,  avg # of iterations =  2.0

     Threshold (ethr) on eigenvalues was too large:
     Diagonalizing with lowered threshold

     Davidson diagonalization with overlap
     ethr =  2.36E-09,  avg # of iterations =  3.8

     total cpu time spent up to now is       22.9 secs

     total energy              =     -91.15900045 Ry
     Harris-Foulkes estimate   =     -91.16532481 Ry
     estimated scf accuracy    <       0.00000073 Ry

     iteration #  2     ecut=    40.00 Ry     beta= 0.50
     Davidson diagonalization with overlap
     ethr =  2.30E-09,  avg # of iterations =  2.5

     total cpu time spent up to now is       24.1 secs

     total energy              =     -91.15900122 Ry
     Harris-Foulkes estimate   =     -91.15900133 Ry
     estimated scf accuracy    <       0.00000039 Ry

     iteration #  3     ecut=    40.00 Ry     beta= 0.50
     Davidson diagonalization with overlap
     ethr =  1.22E-09,  avg # of iterations =  1.0

     total cpu time spent up to now is       24.8 secs

     total energy              =     -91.15900120 Ry
     Harris-Foulkes estimate   =     -91.15900124 Ry
     estimated scf accuracy    <       0.00000012 Ry

     iteration #  4     ecut=    40.00 Ry     beta= 0.50
     Davidson diagonalization with overlap
     ethr =  3.62E-10,  avg # of iterations =  2.0

     total cpu time spent up to now is       26.0 secs

     total energy              =     -91.15900121 Ry
     Harris-Foulkes estimate   =     -91.15900122 Ry
     estimated scf accuracy    <       0.00000002 Ry

     iteration #  5     ecut=    40.00 Ry     beta= 0.50
     Davidson diagonalization with overlap
     ethr =  6.43E-11,  avg # of iterations =  2.0

     total cpu time spent up to now is       27.1 secs

     total energy              =     -91.15900122 Ry
     Harris-Foulkes estimate   =     -91.15900122 Ry
     estimated scf accuracy    <          1.6E-09 Ry

     iteration #  6     ecut=    40.00 Ry     beta= 0.50
     Davidson diagonalization with overlap
     ethr =  4.98E-12,  avg # of iterations =  2.0

     total cpu time spent up to now is       28.3 secs

     End of self-consistent calculation

          k = 0.0000 0.0000 0.0000 (  2349 PWs)   bands (ev):

   -14.0205 -12.4821 -12.4820  -8.6860  -7.7131  -1.8998  -1.8997  -1.6033
    -0.9161  -0.5845  -0.5843   0.4782   0.4783   2.4696   2.5246   3.1458
     7.0769   8.9597  12.8306  12.8312

          k =-0.0001-0.0003 0.5467 (  2358 PWs)   bands (ev):

   -13.3156 -11.7946 -11.7945  -8.0814  -7.1697  -3.3348  -2.6512  -2.6511
    -1.0471  -1.0471  -0.7860   0.2205   0.2213   0.2579   1.0428   4.0027
     6.7833   9.8620  11.4790  11.4799

          k =-0.0002-0.0006 1.0934 (  2342 PWs)   bands (ev):

   -11.2424  -9.7962  -9.7961  -8.0731  -6.3540  -6.3538  -6.2813  -4.6398
    -3.3681  -1.9547  -0.9377  -0.9376   1.5382   2.3066   2.3080   4.7137
     6.5110   7.9326   7.9344  10.3953

          k = 0.0173 0.4607-0.0000 (  2362 PWs)   bands (ev):

   -13.8204 -13.2792 -11.4090 -10.0108  -6.1689  -4.0852  -1.7914  -1.6757
    -0.7472  -0.2625   0.1964   1.1885   1.3647   1.8275   2.1737   2.6231
     8.1183  10.4124  10.4784  12.7638

          k = 0.0172 0.4604 0.5467 (  2347 PWs)   bands (ev):

   -13.1186 -12.5841 -10.7347  -9.3656  -5.7428  -4.0204  -3.1088  -2.3781
    -1.5067  -0.9632  -0.8436  -0.4066   0.3635   1.0777   1.9432   3.3935
     7.7311   9.5879  11.3365  13.1426

          k = 0.0171 0.4601 1.0934 (  2345 PWs)   bands (ev):

   -11.0555 -10.5459  -8.8475  -8.0993  -7.0357  -7.0239  -5.3831  -4.2124
    -3.5899  -2.0810  -1.2510  -0.6453   1.3861   1.4777   3.4402   4.2808
     6.8360   7.1974   9.2355  10.1669

          k = 0.0175 0.4613-1.0934 (  2345 PWs)   bands (ev):

   -11.0553 -10.5459  -8.8476  -8.0995  -7.0357  -7.0240  -5.3829  -4.2124
    -3.5899  -2.0810  -1.2510  -0.6452   1.3842   1.4783   3.4408   4.2824
     6.8371   7.1971   9.2341  10.1661

          k = 0.0174 0.4610-0.5467 (  2348 PWs)   bands (ev):

   -13.1185 -12.5841 -10.7348  -9.3656  -5.7428  -4.0204  -3.1090  -2.3780
    -1.5067  -0.9643  -0.8432  -0.4067   0.3635   1.0777   1.9439   3.3939
     7.7319   9.5873  11.3409  13.1416

          k =-0.5015-0.0064 0.0001 (  2380 PWs)   bands (ev):

   -13.6263 -13.6250 -10.6798 -10.6797  -5.1781  -5.1777  -1.4417  -1.4364
    -0.5472  -0.5462   1.1011   1.1014   1.3223   1.3226   1.8076   1.8081
     9.4660   9.4670  10.3114  10.3235

          k =-0.5016-0.0067 0.5468 (  2345 PWs)   bands (ev):

   -12.9255 -12.9243 -10.0216 -10.0215  -4.8845  -4.8840  -2.8300  -2.8291
    -0.9240  -0.9237  -0.6242  -0.6189   0.8362   0.8365   2.1018   2.1020
     8.9080   8.9096  11.1807  11.1932

          k =-0.5017-0.0069 1.0935 (  2342 PWs)   bands (ev):

   -10.8672 -10.8661  -8.3392  -8.3388  -7.1919  -7.1912  -4.7741  -4.7740
    -2.8410  -2.8407  -0.8713  -0.8711   1.6551   1.6598   3.6582   3.6596
     7.0073   7.0095   9.4204   9.4205

          k =-0.4842 0.4543 0.0001 (  2354 PWs)   bands (ev):

   -13.8982 -12.9933 -11.9816  -9.2078  -7.1561  -2.9816  -2.3663  -0.8641
    -0.8018  -0.4297   0.0700   0.2402   0.9140   2.2977   2.4307   2.9275
     7.6624  10.3229  11.5158  12.5665

          k =-0.4843 0.4541 0.5468 (  2348 PWs)   bands (ev):

   -13.1977 -12.2976 -11.2998  -8.5867  -6.6420  -3.2943  -3.2586  -2.0673
    -1.7794  -1.5209  -0.2829   0.0510   0.3590   1.0257   1.0882   3.7331
     7.2108  10.6583  11.2234  12.2778

          k =-0.4844 0.4538 1.0935 (  2351 PWs)   bands (ev):

   -11.1372 -10.2639  -9.3427  -8.0232  -6.7825  -6.5618  -5.8981  -4.3093
    -3.6464  -1.7176  -1.4206  -0.6557   0.9002   2.4400   2.9610   4.1971
     6.6432   7.9071   8.6504  10.3373

          k =-0.4840 0.4549-1.0933 (  2351 PWs)   bands (ev):

   -11.1371 -10.2638  -9.3428  -8.0233  -6.7826  -6.5619  -5.8980  -4.3092
    -3.6463  -1.7176  -1.4205  -0.6557   0.8990   2.4394   2.9625   4.1984
     6.6437   7.9080   8.6483  10.3366

          k =-0.4841 0.4546-0.5466 (  2350 PWs)   bands (ev):

   -13.1976 -12.2976 -11.2999  -8.5867  -6.6420  -3.2943  -3.2587  -2.0672
    -1.7796  -1.5215  -0.2829   0.0511   0.3587   1.0266   1.0881   3.7336
     7.2110  10.6584  11.2243  12.2766

     the Fermi energy is     4.9407 ev

!    total energy              =     -91.15900122 Ry
     Harris-Foulkes estimate   =     -91.15900122 Ry
     estimated scf accuracy    <          8.6E-11 Ry

     The total energy is the sum of the following terms:

     one-electron contribution =     -46.28730415 Ry
     hartree contribution      =      37.11461859 Ry
     xc contribution           =     -27.96238751 Ry
     ewald contribution        =     -54.02432736 Ry
     smearing contrib. (-TS)   =       0.00039921 Ry

     convergence has been achieved in   6 iterations

     Forces acting on atoms (cartesian axes, Ry/au):

     atom    1 type  1   force =    -0.00033506    0.00005975    0.00009136
     atom    2 type  1   force =     0.00029029   -0.00004081   -0.00003795
     atom    3 type  1   force =     0.00001210    0.00025817   -0.00017025
     atom    4 type  1   force =     0.00002197   -0.00028511    0.00012554
     atom    5 type  1   force =     0.00021212   -0.00008130   -0.00015790
     atom    6 type  1   force =    -0.00007581    0.00021204    0.00005694
     atom    7 type  1   force =    -0.00024435    0.00012620    0.00001653
     atom    8 type  1   force =     0.00011874   -0.00024894    0.00007573

     Total force =     0.000833     Total SCF correction =     0.000017


     Computing stress (Cartesian axis) and pressure

          total   stress  (Ry/bohr**3)                   (kbar)     P=       -0.63
   0.00000263  -0.00000618   0.00000001            0.39       -0.91        0.00
  -0.00000618  -0.00000787  -0.00000002           -0.91       -1.16       -0.00
   0.00000001  -0.00000002  -0.00000759            0.00       -0.00       -1.12


     number of scf cycles    =   4
     number of bfgs steps    =   2

     enthalpy old            =     -91.1589488540 Ry
     enthalpy new            =     -91.1589638375 Ry

     CASE: enthalpy_new < enthalpy_old

     new trust radius        =       0.0011160323 bohr
     new conv_thr            =            1.0E-10 Ry

     new unit-cell volume =    549.72485 a.u.^3 (    81.46082 Ang^3 )
     density =      1.95691 g/cm^3

CELL_PARAMETERS (bohr)
  12.739324571  -0.479313633   0.001838652
  -0.118571136   9.242211520   0.004748450
   0.001074497   0.000018498   4.671246296

ATOMIC_POSITIONS (crystal)
C             0.4643607542        0.9669660620        1.4039190774
C             0.7973161738        0.6320042661        0.4040430838
C            -0.0363421289        0.4656782170        0.4041538987
C             0.2980009366        0.1332468850       -0.5960350459
C             1.0474502546        0.3822437168        0.9041473545
C             0.7138211312        0.7159801633        0.9040216651
C             0.2141982777        0.2166652034       -0.0960131827
C             0.5478646008       -0.1169975134        1.9039251492



     Writing output data file ./pp.save/
     NEW-OLD atomic charge density approx. for the potential
     extrapolated charge   31.99055, renormalised to   32.00000

     total cpu time spent up to now is       28.4 secs

     Self-consistent Calculation

     iteration #  1     ecut=    40.00 Ry     beta= 0.50
     Davidson diagonalization with overlap
     ethr =  1.00E-06,  avg # of iterations =  2.0

     Threshold (ethr) on eigenvalues was too large:
     Diagonalizing with lowered threshold

     Davidson diagonalization with overlap
     ethr =  3.88E-09,  avg # of iterations =  1.8

     total cpu time spent up to now is       30.6 secs

     total energy              =     -91.15900108 Ry
     Harris-Foulkes estimate   =     -91.17015910 Ry
     estimated scf accuracy    <       0.00000127 Ry

     iteration #  2     ecut=    40.00 Ry     beta= 0.50
     Davidson diagonalization with overlap
     ethr =  3.96E-09,  avg # of iterations =  3.0

     total cpu time spent up to now is       32.3 secs

     total energy              =     -91.15900370 Ry
     Harris-Foulkes estimate   =     -91.15900398 Ry
     estimated scf accuracy    <       0.00000082 Ry

     iteration #  3     ecut=    40.00 Ry     beta= 0.50
     Davidson diagonalization with overlap
     ethr =  2.57E-09,  avg # of iterations =  1.0

     total cpu time spent up to now is       33.3 secs

     total energy              =     -91.15900356 Ry
     Harris-Foulkes estimate   =     -91.15900373 Ry
     estimated scf accuracy    <       0.00000029 Ry

     iteration #  4     ecut=    40.00 Ry     beta= 0.50
     Davidson diagonalization with overlap
     ethr =  9.02E-10,  avg # of iterations =  2.0

     total cpu time spent up to now is       34.7 secs

     total energy              =     -91.15900361 Ry
     Harris-Foulkes estimate   =     -91.15900361 Ry
     estimated scf accuracy    <          4.5E-09 Ry

     iteration #  5     ecut=    40.00 Ry     beta= 0.50
     Davidson diagonalization with overlap
     ethr =  1.40E-11,  avg # of iterations =  2.8

     total cpu time spent up to now is       36.5 secs

     total energy              =     -91.15900361 Ry
     Harris-Foulkes estimate   =     -91.15900361 Ry
     estimated scf accuracy    <          5.2E-09 Ry

     iteration #  6     ecut=    40.00 Ry     beta= 0.50
     Davidson diagonalization with overlap
     ethr =  1.40E-11,  avg # of iterations =  2.0

     total cpu time spent up to now is       37.9 secs

     total energy              =     -91.15900361 Ry
     Harris-Foulkes estimate   =     -91.15900361 Ry
     estimated scf accuracy    <          9.8E-10 Ry

     iteration #  7     ecut=    40.00 Ry     beta= 0.50
     Davidson diagonalization with overlap
     ethr =  3.05E-12,  avg # of iterations =  2.0

     total cpu time spent up to now is       39.4 secs

     End of self-consistent calculation

          k = 0.0000 0.0000 0.0000 (  2349 PWs)   bands (ev):

   -14.0184 -12.4800 -12.4799  -8.6848  -7.7114  -1.8991  -1.8990  -1.6003
    -0.9106  -0.5825  -0.5824   0.4837   0.4837   2.4703   2.5299   3.1474
     7.0781   8.9633  12.8333  12.8339

          k =-0.0001-0.0003 0.5468 (  2358 PWs)   bands (ev):

   -13.3133 -11.7924 -11.7923  -8.0800  -7.1677  -3.3303  -2.6478  -2.6477
    -1.0451  -1.0450  -0.7828   0.2227   0.2235   0.2621   1.0443   4.0045
     6.7855   9.8658  11.4827  11.4836

          k =-0.0002-0.0006 1.0935 (  2342 PWs)   bands (ev):

   -11.2395  -9.7934  -9.7933  -8.0694  -6.3506  -6.3504  -6.2793  -4.6379
    -3.3651  -1.9527  -0.9364  -0.9364   1.5418   2.3093   2.3107   4.7173
     6.5134   7.9362   7.9381  10.3986

          k = 0.0173 0.4608-0.0000 (  2362 PWs)   bands (ev):

   -13.8182 -13.2770 -11.4073 -10.0092  -6.1676  -4.0843  -1.7891  -1.6740
    -0.7417  -0.2570   0.1971   1.1911   1.3701   1.8281   2.1790   2.6254
     8.1197  10.4146  10.4832  12.7673

          k = 0.0172 0.4605 0.5468 (  2347 PWs)   bands (ev):

   -13.1162 -12.5817 -10.7328  -9.3638  -5.7411  -4.0182  -3.1045  -2.3745
    -1.5029  -0.9606  -0.8417  -0.4027   0.3650   1.0793   1.9460   3.3960
     7.7334   9.5908  11.3414  13.1468

          k = 0.0172 0.4602 1.0935 (  2345 PWs)   bands (ev):

   -11.0525 -10.5429  -8.8448  -8.0958  -7.0324  -7.0215  -5.3799  -4.2094
    -3.5882  -2.0797  -1.2492  -0.6438   1.3892   1.4802   3.4434   4.2841
     6.8391   7.2009   9.2396  10.1707

          k = 0.0175 0.4614-1.0935 (  2345 PWs)   bands (ev):

   -11.0524 -10.5430  -8.8449  -8.0960  -7.0323  -7.0216  -5.3798  -4.2094
    -3.5883  -2.0796  -1.2492  -0.6437   1.3872   1.4808   3.4440   4.2858
     6.8401   7.2007   9.2382  10.1698

          k = 0.0174 0.4611-0.5468 (  2348 PWs)   bands (ev):

   -13.1161 -12.5817 -10.7328  -9.3639  -5.7411  -4.0182  -3.1046  -2.3744
    -1.5029  -0.9617  -0.8413  -0.4027   0.3650   1.0794   1.9468   3.3964
     7.7341   9.5903  11.3458  13.1457

          k =-0.5015-0.0064 0.0001 (  2380 PWs)   bands (ev):

   -13.6240 -13.6231 -10.6780 -10.6779  -5.1770  -5.1767  -1.4391  -1.4337
    -0.5414  -0.5410   1.1018   1.1020   1.3238   1.3241   1.8131   1.8132
     9.4681   9.4689  10.3154  10.3273

          k =-0.5016-0.0067 0.5469 (  2345 PWs)   bands (ev):

   -12.9230 -12.9221 -10.0196 -10.0195  -4.8826  -4.8823  -2.8257  -2.8252
    -0.9200  -0.9199  -0.6214  -0.6160   0.8379   0.8380   2.1035   2.1038
     8.9109   8.9125  11.1848  11.1971

          k =-0.5016-0.0070 1.0937 (  2342 PWs)   bands (ev):

   -10.8642 -10.8633  -8.3362  -8.3358  -7.1888  -7.1883  -4.7710  -4.7708
    -2.8395  -2.8393  -0.8697  -0.8695   1.6583   1.6631   3.6609   3.6624
     7.0108   7.0130   9.4238   9.4239

          k =-0.4841 0.4544 0.0001 (  2354 PWs)   bands (ev):

   -13.8959 -12.9913 -11.9796  -9.2064  -7.1547  -2.9807  -2.3644  -0.8586
    -0.8011  -0.4269   0.0755   0.2420   0.9194   2.2984   2.4360   2.9296
     7.6646  10.3264  11.5177  12.5724

          k =-0.4842 0.4541 0.5469 (  2348 PWs)   bands (ev):

   -13.1952 -12.2955 -11.2976  -8.5851  -6.6403  -3.2914  -3.2541  -2.0636
    -1.7767  -1.5188  -0.2812   0.0551   0.3619   1.0278   1.0898   3.7354
     7.2136  10.6614  11.2271  12.2813

          k =-0.4843 0.4538 1.0937 (  2351 PWs)   bands (ev):

   -11.1342 -10.2611  -9.3399  -8.0194  -6.7792  -6.5598  -5.8948  -4.3075
    -3.6435  -1.7156  -1.4193  -0.6544   0.9028   2.4434   2.9638   4.2002
     6.6463   7.9109   8.6539  10.3411

          k =-0.4839 0.4549-1.0934 (  2351 PWs)   bands (ev):

   -11.1341 -10.2611  -9.3401  -8.0195  -6.7792  -6.5599  -5.8947  -4.3075
    -3.6434  -1.7157  -1.4193  -0.6544   0.9017   2.4427   2.9653   4.2015
     6.6469   7.9118   8.6518  10.3404

          k =-0.4840 0.4547-0.5467 (  2350 PWs)   bands (ev):

   -13.1951 -12.2954 -11.2977  -8.5851  -6.6403  -3.2914  -3.2542  -2.0634
    -1.7768  -1.5194  -0.2812   0.0551   0.3616   1.0287   1.0897   3.7360
     7.2138  10.6614  11.2280  12.2801

     the Fermi energy is     4.9445 ev

!    total energy              =     -91.15900361 Ry
     Harris-Foulkes estimate   =     -91.15900361 Ry
     estimated scf accuracy    <          7.9E-11 Ry

     The total energy is the sum of the following terms:

     one-electron contribution =     -46.24669122 Ry
     hartree contribution      =      37.09769028 Ry
     xc contribution           =     -27.96290569 Ry
     ewald contribution        =     -54.04749516 Ry
     smearing contrib. (-TS)   =       0.00039818 Ry

     convergence has been achieved in   7 iterations

     Forces acting on atoms (cartesian axes, Ry/au):

     atom    1 type  1   force =    -0.00013155   -0.00011427    0.00008206
     atom    2 type  1   force =     0.00017349    0.00007038    0.00000861
     atom    3 type  1   force =     0.00006589    0.00017862   -0.00013235
     atom    4 type  1   force =    -0.00011255   -0.00014187    0.00003776
     atom    5 type  1   force =     0.00010671    0.00003342   -0.00013298
     atom    6 type  1   force =     0.00003693    0.00009940   -0.00000711
     atom    7 type  1   force =    -0.00009118   -0.00002768    0.00006578
     atom    8 type  1   force =    -0.00004773   -0.00009799    0.00007822

     Total force =     0.000483     Total SCF correction =     0.000004


     Computing stress (Cartesian axis) and pressure

          total   stress  (Ry/bohr**3)                   (kbar)     P=       -0.43
   0.00000132  -0.00000517  -0.00000001            0.19       -0.76       -0.00
  -0.00000517  -0.00000864  -0.00000000           -0.76       -1.27       -0.00
  -0.00000001  -0.00000000  -0.00000137           -0.00       -0.00       -0.20


     number of scf cycles    =   5
     number of bfgs steps    =   3

     enthalpy old            =     -91.1589638375 Ry
     enthalpy new            =     -91.1589662365 Ry

     CASE: enthalpy_new < enthalpy_old

     new trust radius        =       0.0012277614 bohr
     new conv_thr            =            1.0E-10 Ry

     new unit-cell volume =    549.58011 a.u.^3 (    81.43937 Ang^3 )
     density =      1.95743 g/cm^3

CELL_PARAMETERS (bohr)
  12.739569249  -0.480721824   0.001836592
  -0.119679826   9.240071656   0.004746148
   0.001073757   0.000017308   4.671036444

ATOMIC_POSITIONS (crystal)
C             0.4643477315        0.9669566665        1.4039381527
C             0.7973299423        0.6320113955        0.4040415053
C            -0.0363337619        0.4656980115        0.4041202737
C             0.2979912542        0.1332284073       -0.5960188188
C             1.0474578223        0.3822464317        0.9041148218
C             0.7138251502        0.7159921901        0.9040255994
C             0.2141903540        0.2166649940       -0.0960020541
C             0.5478615075       -0.1170110965        1.9039425199



     Writing output data file ./pp.save/
     NEW-OLD atomic charge density approx. for the potential
     extrapolated charge   31.99157, renormalised to   32.00000

     total cpu time spent up to now is       39.5 secs

     Self-consistent Calculation

     iteration #  1     ecut=    40.00 Ry     beta= 0.50
     Davidson diagonalization with overlap
     ethr =  1.00E-06,  avg # of iterations =  2.0

     Threshold (ethr) on eigenvalues was too large:
     Diagonalizing with lowered threshold

     Davidson diagonalization with overlap
     ethr =  2.80E-09,  avg # of iterations =  2.1

     total cpu time spent up to now is       42.4 secs

     total energy              =     -91.15900364 Ry
     Harris-Foulkes estimate   =     -91.16894243 Ry
     estimated scf accuracy    <       0.00000092 Ry

     iteration #  2     ecut=    40.00 Ry     beta= 0.50
     Davidson diagonalization with overlap
     ethr =  2.86E-09,  avg # of iterations =  3.0

     total cpu time spent up to now is       44.5 secs

     total energy              =     -91.15900568 Ry
     Harris-Foulkes estimate   =     -91.15900590 Ry
     estimated scf accuracy    <       0.00000068 Ry

     iteration #  3     ecut=    40.00 Ry     beta= 0.50
     Davidson diagonalization with overlap
     ethr =  2.12E-09,  avg # of iterations =  1.0

     total cpu time spent up to now is       45.8 secs

     total energy              =     -91.15900554 Ry
     Harris-Foulkes estimate   =     -91.15900570 Ry
     estimated scf accuracy    <       0.00000025 Ry

     iteration #  4     ecut=    40.00 Ry     beta= 0.50
     Davidson diagonalization with overlap
     ethr =  7.75E-10,  avg # of iterations =  2.0

     total cpu time spent up to now is       47.6 secs

     total energy              =     -91.15900559 Ry
     Harris-Foulkes estimate   =     -91.15900559 Ry
     estimated scf accuracy    <          5.3E-09 Ry

     iteration #  5     ecut=    40.00 Ry     beta= 0.50
     Davidson diagonalization with overlap
     ethr =  1.65E-11,  avg # of iterations =  2.5

     total cpu time spent up to now is       49.5 secs

     total energy              =     -91.15900559 Ry
     Harris-Foulkes estimate   =     -91.15900559 Ry
     estimated scf accuracy    <          4.4E-09 Ry

     iteration #  6     ecut=    40.00 Ry     beta= 0.50
     Davidson diagonalization with overlap
     ethr =  1.36E-11,  avg # of iterations =  1.0

     total cpu time spent up to now is       50.8 secs

     total energy              =     -91.15900559 Ry
     Harris-Foulkes estimate   =     -91.15900559 Ry
     estimated scf accuracy    <          1.3E-09 Ry

     iteration #  7     ecut=    40.00 Ry     beta= 0.50
     Davidson diagonalization with overlap
     ethr =  4.02E-12,  avg # of iterations =  2.0

     total cpu time spent up to now is       52.7 secs

     total energy              =     -91.15900559 Ry
     Harris-Foulkes estimate   =     -91.15900559 Ry
     estimated scf accuracy    <          1.0E-10 Ry

     iteration #  8     ecut=    40.00 Ry     beta= 0.50
     Davidson diagonalization with overlap
     ethr =  3.13E-13,  avg # of iterations =  2.0

     total cpu time spent up to now is       54.6 secs

     End of self-consistent calculation

          k = 0.0000 0.0000 0.0000 (  2349 PWs)   bands (ev):

   -14.0160 -12.4776 -12.4775  -8.6828  -7.7092  -1.8975  -1.8974  -1.5970
    -0.9068  -0.5803  -0.5802   0.4874   0.4874   2.4719   2.5335   3.1491
     7.0796   8.9669  12.8357  12.8364

          k =-0.0001-0.0003 0.5468 (  2358 PWs)   bands (ev):

   -13.3108 -11.7899 -11.7898  -8.0780  -7.1653  -3.3269  -2.6450  -2.6449
    -1.0428  -1.0428  -0.7795   0.2250   0.2258   0.2653   1.0462   4.0063
     6.7875   9.8695  11.4855  11.4864

          k =-0.0002-0.0006 1.0936 (  2342 PWs)   bands (ev):

   -11.2368  -9.7907  -9.7906  -8.0664  -6.3477  -6.3475  -6.2771  -4.6356
    -3.3625  -1.9504  -0.9346  -0.9346   1.5451   2.3118   2.3131   4.7204
     6.5154   7.9390   7.9409  10.4010

          k = 0.0174 0.4609-0.0000 (  2362 PWs)   bands (ev):

   -13.8157 -13.2745 -11.4051 -10.0072  -6.1656  -4.0825  -1.7865  -1.6722
    -0.7379  -0.2532   0.1986   1.1940   1.3737   1.8297   2.1826   2.6279
     8.1213  10.4168  10.4881  12.7704

          k = 0.0173 0.4606 0.5468 (  2347 PWs)   bands (ev):

   -13.1136 -12.5791 -10.7305  -9.3617  -5.7389  -4.0159  -3.1011  -2.3715
    -1.4999  -0.9580  -0.8398  -0.3997   0.3670   1.0814   1.9490   3.3986
     7.7355   9.5933  11.3463  13.1499

          k = 0.0172 0.4604 1.0936 (  2345 PWs)   bands (ev):

   -11.0498 -10.5401  -8.8422  -8.0929  -7.0294  -7.0190  -5.3771  -4.2068
    -3.5861  -2.0777  -1.2470  -0.6419   1.3920   1.4823   3.4462   4.2870
     6.8416   7.2036   9.2428  10.1735

          k = 0.0176 0.4615-1.0936 (  2345 PWs)   bands (ev):

   -11.0496 -10.5402  -8.8423  -8.0931  -7.0293  -7.0191  -5.3770  -4.2067
    -3.5861  -2.0777  -1.2470  -0.6418   1.3900   1.4830   3.4468   4.2886
     6.8427   7.2034   9.2414  10.1726

          k = 0.0175 0.4612-0.5468 (  2348 PWs)   bands (ev):

   -13.1135 -12.5791 -10.7306  -9.3617  -5.7389  -4.0158  -3.1012  -2.3714
    -1.4998  -0.9591  -0.8394  -0.3997   0.3670   1.0814   1.9497   3.3990
     7.7362   9.5927  11.3507  13.1488

          k =-0.5015-0.0065 0.0001 (  2380 PWs)   bands (ev):

   -13.6215 -13.6208 -10.6757 -10.6756  -5.1751  -5.1750  -1.4362  -1.4308
    -0.5375  -0.5373   1.1034   1.1035   1.3255   1.3258   1.8167   1.8169
     9.4702   9.4710  10.3194  10.3311

          k =-0.5015-0.0068 0.5469 (  2345 PWs)   bands (ev):

   -12.9204 -12.9197 -10.0172 -10.0172  -4.8804  -4.8803  -2.8224  -2.8221
    -0.9169  -0.9168  -0.6185  -0.6131   0.8399   0.8400   2.1053   2.1055
     8.9135   8.9151  11.1889  11.2009

          k =-0.5016-0.0071 1.0937 (  2342 PWs)   bands (ev):

   -10.8614 -10.8607  -8.3333  -8.3331  -7.1859  -7.1856  -4.7681  -4.7681
    -2.8374  -2.8374  -0.8676  -0.8675   1.6613   1.6662   3.6633   3.6648
     7.0136   7.0159   9.4263   9.4265

          k =-0.4841 0.4544 0.0001 (  2354 PWs)   bands (ev):

   -13.8933 -12.9890 -11.9773  -9.2043  -7.1527  -2.9789  -2.3624  -0.8548
    -0.7995  -0.4239   0.0792   0.2441   0.9231   2.2999   2.4396   2.9320
     7.6672  10.3301  11.5195  12.5784

          k =-0.4842 0.4541 0.5469 (  2348 PWs)   bands (ev):

   -13.1926 -12.2931 -11.2952  -8.5830  -6.6382  -3.2888  -3.2507  -2.0606
    -1.7742  -1.5167  -0.2792   0.0582   0.3650   1.0299   1.0918   3.7379
     7.2163  10.6638  11.2307  12.2838

          k =-0.4842 0.4539 1.0937 (  2351 PWs)   bands (ev):

   -11.1314 -10.2585  -9.3373  -8.0163  -6.7763  -6.5575  -5.8919  -4.3053
    -3.6409  -1.7134  -1.4174  -0.6525   0.9051   2.4465   2.9663   4.2028
     6.6491   7.9140   8.6566  10.3441

          k =-0.4839 0.4550-1.0935 (  2351 PWs)   bands (ev):

   -11.1312 -10.2584  -9.3374  -8.0164  -6.7763  -6.5576  -5.8918  -4.3053
    -3.6408  -1.7135  -1.4174  -0.6524   0.9040   2.4459   2.9678   4.2041
     6.6496   7.9149   8.6545  10.3433

          k =-0.4840 0.4547-0.5467 (  2350 PWs)   bands (ev):

   -13.1925 -12.2930 -11.2953  -8.5830  -6.6381  -3.2888  -3.2507  -2.0605
    -1.7743  -1.5173  -0.2791   0.0582   0.3647   1.0309   1.0917   3.7384
     7.2165  10.6638  11.2316  12.2826

     the Fermi energy is     4.9477 ev

!    total energy              =     -91.15900559 Ry
     Harris-Foulkes estimate   =     -91.15900559 Ry
     estimated scf accuracy    <          1.7E-11 Ry

     The total energy is the sum of the following terms:

     one-electron contribution =     -46.19927698 Ry
     hartree contribution      =      37.07703841 Ry
     xc contribution           =     -27.96297981 Ry
     ewald contribution        =     -54.07418441 Ry
     smearing contrib. (-TS)   =       0.00039719 Ry

     convergence has been achieved in   8 iterations

     Forces acting on atoms (cartesian axes, Ry/au):

     atom    1 type  1   force =    -0.00007079   -0.00017121    0.00006850
     atom    2 type  1   force =     0.00008898    0.00014782    0.00000309
     atom    3 type  1   force =     0.00011067    0.00011648   -0.00009742
     atom    4 type  1   force =    -0.00013039   -0.00009760    0.00002109
     atom    5 type  1   force =     0.00004523    0.00010284   -0.00009573
     atom    6 type  1   force =     0.00007907    0.00004800   -0.00001461
     atom    7 type  1   force =    -0.00002981   -0.00009991    0.00004643
     atom    8 type  1   force =    -0.00009295   -0.00004642    0.00006865

     Total force =     0.000436     Total SCF correction =     0.000001


     Computing stress (Cartesian axis) and pressure

          total   stress  (Ry/bohr**3)                   (kbar)     P=       -0.40
   0.00000025  -0.00000424  -0.00000001            0.04       -0.62       -0.00
  -0.00000424  -0.00000921  -0.00000001           -0.62       -1.36       -0.00
  -0.00000001  -0.00000001   0.00000070           -0.00       -0.00        0.10


     number of scf cycles    =   6
     number of bfgs steps    =   4

     enthalpy old            =     -91.1589662365 Ry
     enthalpy new            =     -91.1589682287 Ry

     CASE: enthalpy_new < enthalpy_old

     new trust radius        =       0.0018419128 bohr
     new conv_thr            =            1.0E-10 Ry

     new unit-cell volume =    549.35984 a.u.^3 (    81.40673 Ang^3 )
     density =      1.95821 g/cm^3

CELL_PARAMETERS (bohr)
  12.739658129  -0.482577272   0.001835759
  -0.121157128   9.236772181   0.004741310
   0.001073396   0.000014806   4.670837475

ATOMIC_POSITIONS (crystal)
C             0.4643296563        0.9669403933        1.4039640122
C             0.7973460801        0.6320275666        0.4040361489
C            -0.0363191723        0.4657230292        0.4040763659
C             0.2979779280        0.1332023615       -0.5959949667
C             1.0474663927        0.3822551494        0.9040735241
C             0.7138322525        0.7160073728        0.9040322437
C             0.2141806005        0.2166604015       -0.0959915729
C             0.5478562622       -0.1170292743        1.9039662449



     Writing output data file ./pp.save/
     NEW-OLD atomic charge density approx. for the potential
     extrapolated charge   31.98717, renormalised to   32.00000

     total cpu time spent up to now is       54.7 secs

     Self-consistent Calculation

     iteration #  1     ecut=    40.00 Ry     beta= 0.50
     Davidson diagonalization with overlap
     ethr =  1.00E-06,  avg # of iterations =  2.0

     Threshold (ethr) on eigenvalues was too large:
     Diagonalizing with lowered threshold

     Davidson diagonalization with overlap
     ethr =  6.56E-09,  avg # of iterations =  1.6

     total cpu time spent up to now is       58.2 secs

     total energy              =     -91.15900381 Ry
     Harris-Foulkes estimate   =     -91.17411227 Ry
     estimated scf accuracy    <       0.00000213 Ry

     iteration #  2     ecut=    40.00 Ry     beta= 0.50
     Davidson diagonalization with overlap
     ethr =  6.65E-09,  avg # of iterations =  3.0

     total cpu time spent up to now is       60.9 secs

     total energy              =     -91.15900852 Ry
     Harris-Foulkes estimate   =     -91.15900903 Ry
     estimated scf accuracy    <       0.00000156 Ry

     iteration #  3     ecut=    40.00 Ry     beta= 0.50
     Davidson diagonalization with overlap
     ethr =  4.88E-09,  avg # of iterations =  1.0

     total cpu time spent up to now is       62.4 secs

     total energy              =     -91.15900820 Ry
     Harris-Foulkes estimate   =     -91.15900857 Ry
     estimated scf accuracy    <       0.00000057 Ry

     iteration #  4     ecut=    40.00 Ry     beta= 0.50
     Davidson diagonalization with overlap
     ethr =  1.78E-09,  avg # of iterations =  2.0

     total cpu time spent up to now is       64.6 secs

     total energy              =     -91.15900832 Ry
     Harris-Foulkes estimate   =     -91.15900833 Ry
     estimated scf accuracy    <       0.00000002 Ry

     iteration #  5     ecut=    40.00 Ry     beta= 0.50
     Davidson diagonalization with overlap
     ethr =  5.60E-11,  avg # of iterations =  1.7

     total cpu time spent up to now is       66.5 secs

     total energy              =     -91.15900832 Ry
     Harris-Foulkes estimate   =     -91.15900833 Ry
     estimated scf accuracy    <          9.0E-09 Ry

     iteration #  6     ecut=    40.00 Ry     beta= 0.50
     Davidson diagonalization with overlap
     ethr =  2.82E-11,  avg # of iterations =  1.1

     total cpu time spent up to now is       68.1 secs

     total energy              =     -91.15900832 Ry
     Harris-Foulkes estimate   =     -91.15900832 Ry
     estimated scf accuracy    <          2.8E-09 Ry

     iteration #  7     ecut=    40.00 Ry     beta= 0.50
     Davidson diagonalization with overlap
     ethr =  8.73E-12,  avg # of iterations =  2.0

     total cpu time spent up to now is       70.4 secs

     total energy              =     -91.15900832 Ry
     Harris-Foulkes estimate   =     -91.15900832 Ry
     estimated scf accuracy    <          2.3E-10 Ry

     iteration #  8     ecut=    40.00 Ry     beta= 0.50
     Davidson diagonalization with overlap
     ethr =  7.18E-13,  avg # of iterations =  2.0

     total cpu time spent up to now is       72.6 secs

     End of self-consistent calculation

          k = 0.0000 0.0000 0.0000 (  2349 PWs)   bands (ev):

   -14.0124 -12.4739 -12.4739  -8.6794  -7.7056  -1.8944  -1.8943  -1.5922
    -0.9020  -0.5770  -0.5769   0.4922   0.4922   2.4750   2.5382   3.1520
     7.0823   8.9724  12.8400  12.8407

          k =-0.0001-0.0003 0.5468 (  2358 PWs)   bands (ev):

   -13.3072 -11.7862 -11.7861  -8.0745  -7.1617  -3.3224  -2.6408  -2.6408
    -1.0392  -1.0392  -0.7747   0.2284   0.2292   0.2697   1.0497   4.0094
     6.7909   9.8749  11.4898  11.4907

          k =-0.0002-0.0006 1.0936 (  2342 PWs)   bands (ev):

   -11.2329  -9.7868  -9.7866  -8.0622  -6.3436  -6.3434  -6.2735  -4.6320
    -3.3585  -1.9468  -0.9313  -0.9313   1.5500   2.3154   2.3167   4.7250
     6.5187   7.9431   7.9449  10.4046

          k = 0.0175 0.4611-0.0000 (  2362 PWs)   bands (ev):

   -13.8120 -13.2707 -11.4016 -10.0038  -6.1622  -4.0793  -1.7827  -1.6694
    -0.7330  -0.2483   0.2018   1.1986   1.3785   1.8328   2.1874   2.6319
     8.1244  10.4206  10.4956  12.7751

          k = 0.0174 0.4608 0.5468 (  2347 PWs)   bands (ev):

   -13.1099 -12.5752 -10.7270  -9.3582  -5.7353  -4.0122  -3.0967  -2.3673
    -1.4956  -0.9541  -0.8370  -0.3954   0.3704   1.0849   1.9536   3.4027
     7.7389   9.5971  11.3536  13.1546

          k = 0.0173 0.4605 1.0936 (  2345 PWs)   bands (ev):

   -11.0458 -10.5361  -8.8384  -8.0888  -7.0252  -7.0152  -5.3732  -4.2029
    -3.5826  -2.0744  -1.2434  -0.6385   1.3960   1.4855   3.4505   4.2912
     6.8456   7.2077   9.2475  10.1778

          k = 0.0176 0.4617-1.0936 (  2345 PWs)   bands (ev):

   -11.0457 -10.5361  -8.8385  -8.0890  -7.0251  -7.0153  -5.3730  -4.2028
    -3.5826  -2.0743  -1.2434  -0.6384   1.3941   1.4861   3.4510   4.2929
     6.8466   7.2074   9.2462  10.1769

          k = 0.0176 0.4614-0.5468 (  2348 PWs)   bands (ev):

   -13.1098 -12.5752 -10.7271  -9.3583  -5.7353  -4.0121  -3.0968  -2.3672
    -1.4956  -0.9553  -0.8366  -0.3955   0.3704   1.0849   1.9543   3.4031
     7.7396   9.5966  11.3580  13.1535

          k =-0.5015-0.0066 0.0001 (  2380 PWs)   bands (ev):

   -13.6178 -13.6173 -10.6721 -10.6719  -5.1718  -5.1717  -1.4319  -1.4265
    -0.5327  -0.5324   1.1064   1.1067   1.3283   1.3285   1.8214   1.8218
     9.4739   9.4746  10.3255  10.3368

          k =-0.5015-0.0069 0.5469 (  2345 PWs)   bands (ev):

   -12.9167 -12.9162 -10.0136 -10.0134  -4.8768  -4.8768  -2.8180  -2.8178
    -0.9127  -0.9124  -0.6141  -0.6087   0.8432   0.8435   2.1082   2.1084
     8.9175   8.9191  11.1949  11.2066

          k =-0.5016-0.0071 1.0938 (  2342 PWs)   bands (ev):

   -10.8574 -10.8570  -8.3293  -8.3291  -7.1819  -7.1817  -4.7641  -4.7639
    -2.8340  -2.8339  -0.8642  -0.8640   1.6657   1.6706   3.6669   3.6683
     7.0177   7.0201   9.4300   9.4302

          k =-0.4840 0.4545 0.0001 (  2354 PWs)   bands (ev):

   -13.8895 -12.9855 -11.9736  -9.2009  -7.1494  -2.9757  -2.3594  -0.8499
    -0.7963  -0.4193   0.0840   0.2473   0.9279   2.3030   2.4443   2.9358
     7.6714  10.3356  11.5227  12.5875

          k =-0.4841 0.4542 0.5469 (  2348 PWs)   bands (ev):

   -13.1887 -12.2895 -11.2915  -8.5795  -6.6347  -3.2848  -3.2461  -2.0563
    -1.7703  -1.5136  -0.2756   0.0625   0.3697   1.0333   1.0952   3.7417
     7.2205  10.6677  11.2362  12.2877

          k =-0.4842 0.4539 1.0937 (  2351 PWs)   bands (ev):

   -11.1273 -10.2547  -9.3334  -8.0119  -6.7723  -6.5539  -5.8879  -4.3019
    -3.6370  -1.7099  -1.4140  -0.6491   0.9085   2.4512   2.9700   4.2064
     6.6533   7.9185   8.6606  10.3485

          k =-0.4838 0.4551-1.0935 (  2351 PWs)   bands (ev):

   -11.1272 -10.2546  -9.3335  -8.0121  -6.7723  -6.5540  -5.8877  -4.3018
    -3.6369  -1.7099  -1.4140  -0.6491   0.9073   2.4505   2.9715   4.2077
     6.6538   7.9194   8.6585  10.3477

          k =-0.4839 0.4548-0.5467 (  2350 PWs)   bands (ev):

   -13.1886 -12.2894 -11.2916  -8.5795  -6.6347  -3.2849  -3.2462  -2.0562
    -1.7704  -1.5143  -0.2756   0.0625   0.3694   1.0342   1.0952   3.7423
     7.2207  10.6677  11.2371  12.2865

     the Fermi energy is     4.9525 ev

!    total energy              =     -91.15900832 Ry
     Harris-Foulkes estimate   =     -91.15900832 Ry
     estimated scf accuracy    <          2.3E-11 Ry

     The total energy is the sum of the following terms:

     one-electron contribution =     -46.12973670 Ry
     hartree contribution      =      37.04689751 Ry
     xc contribution           =     -27.96317844 Ry
     ewald contribution        =     -54.11338649 Ry
     smearing contrib. (-TS)   =       0.00039580 Ry

     convergence has been achieved in   8 iterations

     Forces acting on atoms (cartesian axes, Ry/au):

     atom    1 type  1   force =     0.00002231   -0.00024870    0.00005338
     atom    2 type  1   force =     0.00004720    0.00018958    0.00001802
     atom    3 type  1   force =     0.00010025    0.00009450   -0.00004945
     atom    4 type  1   force =    -0.00016771   -0.00003681   -0.00003040
     atom    5 type  1   force =     0.00001920    0.00014315   -0.00005702
     atom    6 type  1   force =     0.00010434    0.00000861   -0.00004426
     atom    7 type  1   force =     0.00002756   -0.00016729    0.00005372
     atom    8 type  1   force =    -0.00015315    0.00001696    0.00005602

     Total force =     0.000501     Total SCF correction =     0.000001


     Computing stress (Cartesian axis) and pressure

          total   stress  (Ry/bohr**3)                   (kbar)     P=       -0.34
  -0.00000025  -0.00000374  -0.00000003           -0.04       -0.55       -0.00
  -0.00000374  -0.00000948   0.00000000           -0.55       -1.39        0.00
  -0.00000003   0.00000000   0.00000282           -0.00        0.00        0.41


     number of scf cycles    =   7
     number of bfgs steps    =   5

     enthalpy old            =     -91.1589682287 Ry
     enthalpy new            =     -91.1589709770 Ry

     CASE: enthalpy_new < enthalpy_old

     new trust radius        =       0.0027634712 bohr
     new conv_thr            =            1.0E-10 Ry

     new unit-cell volume =    549.04055 a.u.^3 (    81.35941 Ang^3 )
     density =      1.95935 g/cm^3

CELL_PARAMETERS (bohr)
  12.739757076  -0.485307873   0.001828910
  -0.123335199   9.231806027   0.004736738
   0.001070848   0.000012314   4.670654074

ATOMIC_POSITIONS (crystal)
C             0.4643069998        0.9669111701        1.4040000384
C             0.7973699519        0.6320528029        0.4040306619
C            -0.0363002188        0.4657610675        0.4040195479
C             0.2979569501        0.1331669346       -0.5959685064
C             1.0474797906        0.3822692114        0.9040185637
C             0.7138425964        0.7160288384        0.9040371652
C             0.2141677328        0.2166499222       -0.0959745612
C             0.5478461973       -0.1170529472        1.9039990905



     Writing output data file ./pp.save/
     NEW-OLD atomic charge density approx. for the potential
     extrapolated charge   31.98139, renormalised to   32.00000

     total cpu time spent up to now is       72.7 secs

     Self-consistent Calculation

     iteration #  1     ecut=    40.00 Ry     beta= 0.50
     Davidson diagonalization with overlap
     ethr =  1.00E-06,  avg # of iterations =  2.0

     Threshold (ethr) on eigenvalues was too large:
     Diagonalizing with lowered threshold

     Davidson diagonalization with overlap
     ethr =  1.36E-08,  avg # of iterations =  1.4

     total cpu time spent up to now is       76.9 secs

     total energy              =     -91.15900285 Ry
     Harris-Foulkes estimate   =     -91.18086349 Ry
     estimated scf accuracy    <       0.00000439 Ry

     iteration #  2     ecut=    40.00 Ry     beta= 0.50
     Davidson diagonalization with overlap
     ethr =  1.37E-08,  avg # of iterations =  3.0

     total cpu time spent up to now is       80.0 secs

     total energy              =     -91.15901268 Ry
     Harris-Foulkes estimate   =     -91.15901375 Ry
     estimated scf accuracy    <       0.00000330 Ry

     iteration #  3     ecut=    40.00 Ry     beta= 0.50
     Davidson diagonalization with overlap
     ethr =  1.03E-08,  avg # of iterations =  1.0

     total cpu time spent up to now is       81.8 secs

     total energy              =     -91.15901199 Ry
     Harris-Foulkes estimate   =     -91.15901279 Ry
     estimated scf accuracy    <       0.00000121 Ry

     iteration #  4     ecut=    40.00 Ry     beta= 0.50
     Davidson diagonalization with overlap
     ethr =  3.79E-09,  avg # of iterations =  2.0

     total cpu time spent up to now is       84.4 secs

     total energy              =     -91.15901226 Ry
     Harris-Foulkes estimate   =     -91.15901227 Ry
     estimated scf accuracy    <       0.00000004 Ry

     iteration #  5     ecut=    40.00 Ry     beta= 0.50
     Davidson diagonalization with overlap
     ethr =  1.35E-10,  avg # of iterations =  1.6

     total cpu time spent up to now is       86.5 secs

     total energy              =     -91.15901226 Ry
     Harris-Foulkes estimate   =     -91.15901226 Ry
     estimated scf accuracy    <       0.00000002 Ry

     iteration #  6     ecut=    40.00 Ry     beta= 0.50
     Davidson diagonalization with overlap
     ethr =  5.76E-11,  avg # of iterations =  1.2

     total cpu time spent up to now is       88.6 secs

     total energy              =     -91.15901225 Ry
     Harris-Foulkes estimate   =     -91.15901226 Ry
     estimated scf accuracy    <          5.8E-09 Ry

     iteration #  7     ecut=    40.00 Ry     beta= 0.50
     Davidson diagonalization with overlap
     ethr =  1.81E-11,  avg # of iterations =  2.0

     total cpu time spent up to now is       91.3 secs

     total energy              =     -91.15901225 Ry
     Harris-Foulkes estimate   =     -91.15901225 Ry
     estimated scf accuracy    <          4.5E-10 Ry

     iteration #  8     ecut=    40.00 Ry     beta= 0.50
     Davidson diagonalization with overlap
     ethr =  1.40E-12,  avg # of iterations =  2.0

     total cpu time spent up to now is       93.9 secs

     End of self-consistent calculation

          k = 0.0000 0.0000 0.0000 (  2349 PWs)   bands (ev):

   -14.0071 -12.4683 -12.4683  -8.6742  -7.7002  -1.8895  -1.8895  -1.5850
    -0.8953  -0.5720  -0.5719   0.4989   0.4989   2.4799   2.5448   3.1564
     7.0864   8.9804  12.8462  12.8470

          k =-0.0001-0.0003 0.5468 (  2358 PWs)   bands (ev):

   -13.3018 -11.7805 -11.7804  -8.0692  -7.1561  -3.3161  -2.6349  -2.6348
    -1.0338  -1.0338  -0.7674   0.2334   0.2342   0.2760   1.0549   4.0138
     6.7958   9.8829  11.4958  11.4967

          k =-0.0002-0.0006 1.0937 (  2342 PWs)   bands (ev):

   -11.2273  -9.7810  -9.7808  -8.0563  -6.3376  -6.3374  -6.2680  -4.6265
    -3.3527  -1.9413  -0.9262  -0.9262   1.5572   2.3206   2.3220   4.7316
     6.5234   7.9487   7.9506  10.4098

          k = 0.0176 0.4613-0.0000 (  2362 PWs)   bands (ev):

   -13.8065 -13.2649 -11.3964  -9.9986  -6.1569  -4.0743  -1.7771  -1.6653
    -0.7263  -0.2416   0.2066   1.2054   1.3851   1.8377   2.1939   2.6378
     8.1288  10.4263  10.5066  12.7818

          k = 0.0175 0.4611 0.5468 (  2347 PWs)   bands (ev):

   -13.1043 -12.5694 -10.7217  -9.3530  -5.7299  -4.0067  -3.0904  -2.3613
    -1.4896  -0.9484  -0.8327  -0.3894   0.3757   1.0902   1.9604   3.4087
     7.7438   9.6027  11.3644  13.1611

          k = 0.0174 0.4608 1.0937 (  2345 PWs)   bands (ev):

   -11.0401 -10.5301  -8.8328  -8.0829  -7.0192  -7.0097  -5.3674  -4.1972
    -3.5772  -2.0692  -1.2381  -0.6333   1.4019   1.4901   3.4566   4.2974
     6.8512   7.2134   9.2543  10.1839

          k = 0.0178 0.4619-1.0937 (  2345 PWs)   bands (ev):

   -11.0399 -10.5301  -8.8329  -8.0831  -7.0191  -7.0098  -5.3673  -4.1971
    -3.5772  -2.0692  -1.2380  -0.6332   1.3999   1.4907   3.4572   4.2990
     6.8523   7.2131   9.2529  10.1830

          k = 0.0177 0.4616-0.5468 (  2348 PWs)   bands (ev):

   -13.1042 -12.5694 -10.7218  -9.3530  -5.7299  -4.0067  -3.0905  -2.3612
    -1.4896  -0.9495  -0.8323  -0.3894   0.3756   1.0902   1.9611   3.4092
     7.7445   9.6021  11.3688  13.1601

          k =-0.5015-0.0067 0.0001 (  2380 PWs)   bands (ev):

   -13.6123 -13.6120 -10.6665 -10.6664  -5.1669  -5.1666  -1.4254  -1.4201
    -0.5262  -0.5256   1.1113   1.1115   1.3324   1.3326   1.8280   1.8284
     9.4793   9.4799  10.3345  10.3452

          k =-0.5016-0.0070 0.5470 (  2345 PWs)   bands (ev):

   -12.9111 -12.9108 -10.0079 -10.0078  -4.8716  -4.8714  -2.8120  -2.8116
    -0.9065  -0.9063  -0.6076  -0.6023   0.8485   0.8486   2.1125   2.1126
     8.9234   8.9250  11.2038  11.2150

          k =-0.5016-0.0073 1.0938 (  2342 PWs)   bands (ev):

   -10.8516 -10.8514  -8.3233  -8.3233  -7.1761  -7.1759  -4.7581  -4.7580
    -2.8289  -2.8287  -0.8589  -0.8588   1.6722   1.6770   3.6720   3.6735
     7.0236   7.0260   9.4351   9.4354

          k =-0.4839 0.4546 0.0001 (  2354 PWs)   bands (ev):

   -13.8838 -12.9802 -11.9681  -9.1957  -7.1443  -2.9706  -2.3549  -0.8431
[...]
     Harris-Foulkes estimate   =     -91.15921164 Ry
     estimated scf accuracy    <       0.00000001 Ry

     iteration #  7     ecut=    40.00 Ry     beta= 0.50
     Davidson diagonalization with overlap
     ethr =  4.05E-11,  avg # of iterations =  2.0

     total cpu time spent up to now is     2008.3 secs

     total energy              =     -91.15921163 Ry
     Harris-Foulkes estimate   =     -91.15921163 Ry
     estimated scf accuracy    <          5.9E-10 Ry

     iteration #  8     ecut=    40.00 Ry     beta= 0.50
     Davidson diagonalization with overlap
     ethr =  1.84E-12,  avg # of iterations =  2.1

     total cpu time spent up to now is     2023.5 secs

     End of self-consistent calculation

          k = 0.0000 0.0000 0.0000 (  2349 PWs)   bands (ev):

   -13.7996 -12.2560 -12.2558  -8.4336  -7.4649  -1.6689  -1.6687  -1.3010
    -0.6894  -0.2911  -0.2908   0.7063   0.7065   2.7030   2.7559   3.2166
     7.1147   9.2953  12.9432  13.0748

          k = 0.0000-0.0001 0.5467 (  2358 PWs)   bands (ev):

   -13.0944 -11.5684 -11.5681  -7.8304  -6.9235  -3.1085  -2.4234  -2.4209
    -0.8183  -0.8156  -0.4866   0.4933   0.5112   0.5118   1.2783   4.0775
     6.8929  10.1921  11.7350  11.7364

          k = 0.0000-0.0003 1.0933 (  2342 PWs)   bands (ev):

   -11.0200  -9.5696  -9.5691  -7.8475  -6.1268  -6.1258  -6.0343  -4.3977
    -3.1265  -1.7149  -0.7066  -0.7055   1.8256   2.5863   2.5878   4.9557
     6.5992   8.2145   8.2168  10.5126

          k = 0.0154 0.4884 0.0001 (  2362 PWs)   bands (ev):

   -13.5866 -13.0351 -11.1928  -9.7741  -5.9361  -3.8657  -1.5934  -1.5266
    -0.5183  -0.0317   0.4376   1.5657   1.5910   2.0642   2.4028   2.7920
     8.3477  10.8111  11.0776  12.7973

          k = 0.0154 0.4882 0.5468 (  2347 PWs)   bands (ev):

   -12.8849 -12.3406 -10.5178  -9.1294  -5.5097  -3.7964  -2.8791  -2.1470
    -1.2793  -0.7646  -0.6919  -0.1758   0.5984   1.3129   2.3121   3.5637
     7.9662   9.8830  11.9198  13.4048

          k = 0.0154 0.4881 1.0934 (  2345 PWs)   bands (ev):

   -10.8224 -10.3048  -8.6265  -7.8670  -6.8004  -6.7889  -5.1608  -3.9794
    -3.3577  -1.8551  -1.0175  -0.4146   1.5877   1.6435   3.7278   4.4776
     7.0368   7.4560   9.5567  10.3576

          k = 0.0154 0.4887-1.0932 (  2345 PWs)   bands (ev):

   -10.8225 -10.3045  -8.6275  -7.8654  -6.7988  -6.7912  -5.1617  -3.9787
    -3.3568  -1.8562  -1.0184  -0.4134   1.5871   1.6445   3.7255   4.4798
     7.0344   7.4589   9.5553  10.3583

          k = 0.0154 0.4885-0.5465 (  2348 PWs)   bands (ev):

   -12.8850 -12.3406 -10.5179  -9.1292  -5.5107  -3.7944  -2.8783  -2.1490
    -1.2814  -0.7648  -0.6916  -0.1741   0.6008   1.3109   2.3114   3.5645
     7.9651   9.8846  11.9199  13.4040

          k =-0.4842-0.0048 0.0000 (  2380 PWs)   bands (ev):

   -13.4060 -13.4039 -10.4401 -10.4381  -4.9350  -4.9336  -1.1251  -1.1153
    -0.3205  -0.3189   1.3290   1.3316   1.4981   1.4986   2.0364   2.0398
     9.5625   9.5663  10.5116  10.5318

          k =-0.4842-0.0050 0.5467 (  2345 PWs)   bands (ev):

   -12.7047 -12.7027  -9.7825  -9.7805  -4.6453  -4.6431  -2.6024  -2.6005
    -0.6925  -0.6892  -0.3111  -0.3017   1.0656   1.0690   2.2803   2.2813
     9.0699   9.0716  11.3781  11.3980

          k =-0.4842-0.0051 1.0933 (  2342 PWs)   bands (ev):

   -10.6452 -10.6433  -8.1063  -8.1035  -6.9641  -6.9614  -4.5391  -4.5367
    -2.6026  -2.6012  -0.6369  -0.6349   1.9533   1.9611   3.8778   3.8805
     7.2330   7.2386   9.6140   9.6158

          k =-0.4688 0.4835 0.0002 (  2354 PWs)   bands (ev):

   -13.6600 -12.7674 -11.7349  -8.9905  -6.9337  -2.7371  -2.1727  -0.6343
    -0.5717  -0.1747   0.2976   0.3330   1.1449   2.5328   2.6575   3.2974
     8.0306  10.7761  11.6481  13.0563

          k =-0.4688 0.4834 0.5468 (  2348 PWs)   bands (ev):

   -12.9599 -12.0715 -11.0542  -8.3684  -6.4188  -3.0579  -3.0270  -1.8339
    -1.5458  -1.3267  -0.0506   0.2776   0.6126   1.1249   1.3194   4.0984
     7.5142  10.8376  11.6639  12.4846

          k =-0.4688 0.4832 1.0935 (  2351 PWs)   bands (ev):

   -10.9007 -10.0371  -9.1005  -7.7900  -6.5541  -6.3412  -5.6593  -4.0833
    -3.4230  -1.4899  -1.1827  -0.4213   1.0990   2.6820   3.0988   4.4344
     6.9740   8.1119   8.7872  10.6579

          k =-0.4688 0.4838-1.0932 (  2351 PWs)   bands (ev):

   -10.9006 -10.0374  -9.0998  -7.7907  -6.5555  -6.3398  -5.6583  -4.0841
    -3.4236  -1.4893  -1.1817  -0.4224   1.0991   2.6805   3.1007   4.4332
     6.9755   8.1095   8.7891  10.6575

          k =-0.4688 0.4837-0.5465 (  2350 PWs)   bands (ev):

   -12.9599 -12.0716 -11.0540  -8.3687  -6.4182  -3.0604  -3.0274  -1.8317
    -1.5433  -1.3267  -0.0531   0.2762   0.6121   1.1255   1.3209   4.0978
     7.5152  10.8362  11.6637  12.4857

     the Fermi energy is     5.1921 ev

!    total energy              =     -91.15921163 Ry
     Harris-Foulkes estimate   =     -91.15921163 Ry
     estimated scf accuracy    <          2.9E-11 Ry

     The total energy is the sum of the following terms:

     one-electron contribution =     -42.02034694 Ry
     hartree contribution      =      35.25481398 Ry
     xc contribution           =     -27.96465825 Ry
     ewald contribution        =     -56.42935094 Ry
     smearing contrib. (-TS)   =       0.00033051 Ry

     convergence has been achieved in   8 iterations

     Forces acting on atoms (cartesian axes, Ry/au):

     atom    1 type  1   force =    -0.00052876    0.00031877   -0.00040252
     atom    2 type  1   force =     0.00021454   -0.00014290    0.00008467
     atom    3 type  1   force =    -0.00005464    0.00072759    0.00029774
     atom    4 type  1   force =     0.00029580   -0.00101078    0.00003268
     atom    5 type  1   force =     0.00062659   -0.00057247   -0.00034552
     atom    6 type  1   force =     0.00025952    0.00034551    0.00083675
     atom    7 type  1   force =    -0.00082918    0.00083885    0.00054867
     atom    8 type  1   force =     0.00001614   -0.00050458   -0.00105247

     Total force =     0.002670     Total SCF correction =     0.000002


     Computing stress (Cartesian axis) and pressure

          total   stress  (Ry/bohr**3)                   (kbar)     P=       -0.19
   0.00000656  -0.00000001  -0.00000172            0.96       -0.00       -0.25
  -0.00000001   0.00000188   0.00000111           -0.00        0.28        0.16
  -0.00000172   0.00000111  -0.00001223           -0.25        0.16       -1.80


     number of scf cycles    =  35
     number of bfgs steps    =  33

     enthalpy old            =     -91.1591658123 Ry
     enthalpy new            =     -91.1591751182 Ry

     CASE: enthalpy_new < enthalpy_old

     new trust radius        =       0.0225336384 bohr
     new conv_thr            =            1.0E-10 Ry

     new unit-cell volume =    537.86646 a.u.^3 (    79.70359 Ang^3 )
     density =      2.00006 g/cm^3

CELL_PARAMETERS (bohr)
  13.246313130  -0.389845609  -0.000509176
  -0.068153891   8.692711274   0.001994858
   0.000208348  -0.001341952   4.672231864

ATOMIC_POSITIONS (crystal)
C             0.4644954941        0.9673351882        1.4046368291
C             0.7971984919        0.6316525981        0.4036652613
C            -0.0364810179        0.4651851410        0.4038614747
C             0.2981387919        0.1337602969       -0.5960847014
C             1.0473705458        0.3820567971        0.9039426343
C             0.7137218617        0.7157035008        0.9036689685
C             0.2142805942        0.2167824691       -0.0962084592
C             0.5479452383       -0.1166889912        1.9046799927



     Writing output data file ./pp.save/
     NEW-OLD atomic charge density approx. for the potential
     extrapolated charge   32.04174, renormalised to   32.00000

     total cpu time spent up to now is     2024.0 secs

     Self-consistent Calculation

     iteration #  1     ecut=    40.00 Ry     beta= 0.50
     Davidson diagonalization with overlap
     ethr =  1.00E-06,  avg # of iterations =  3.8

     Threshold (ethr) on eigenvalues was too large:
     Diagonalizing with lowered threshold

     Davidson diagonalization with overlap
     ethr =  8.48E-08,  avg # of iterations =  1.2

     total cpu time spent up to now is     2059.9 secs

     total energy              =     -91.15917774 Ry
     Harris-Foulkes estimate   =     -91.11448484 Ry
     estimated scf accuracy    <       0.00002697 Ry

     iteration #  2     ecut=    40.00 Ry     beta= 0.50
     Davidson diagonalization with overlap
     ethr =  8.43E-08,  avg # of iterations =  3.0

     total cpu time spent up to now is     2078.1 secs

     total energy              =     -91.15922613 Ry
     Harris-Foulkes estimate   =     -91.15923116 Ry
     estimated scf accuracy    <       0.00001766 Ry

     iteration #  3     ecut=    40.00 Ry     beta= 0.50
     Davidson diagonalization with overlap
     ethr =  5.52E-08,  avg # of iterations =  1.0

     total cpu time spent up to now is     2088.6 secs

     total energy              =     -91.15922352 Ry
     Harris-Foulkes estimate   =     -91.15922669 Ry
     estimated scf accuracy    <       0.00000631 Ry

     iteration #  4     ecut=    40.00 Ry     beta= 0.50
     Davidson diagonalization with overlap
     ethr =  1.97E-08,  avg # of iterations =  2.0

     total cpu time spent up to now is     2103.9 secs

     total energy              =     -91.15922481 Ry
     Harris-Foulkes estimate   =     -91.15922488 Ry
     estimated scf accuracy    <       0.00000047 Ry

     iteration #  5     ecut=    40.00 Ry     beta= 0.50
     Davidson diagonalization with overlap
     ethr =  1.47E-09,  avg # of iterations =  1.4

     total cpu time spent up to now is     2115.8 secs

     total energy              =     -91.15922476 Ry
     Harris-Foulkes estimate   =     -91.15922486 Ry
     estimated scf accuracy    <       0.00000026 Ry

     iteration #  6     ecut=    40.00 Ry     beta= 0.50
     Davidson diagonalization with overlap
     ethr =  8.25E-10,  avg # of iterations =  1.0

     total cpu time spent up to now is     2126.6 secs

     total energy              =     -91.15922473 Ry
     Harris-Foulkes estimate   =     -91.15922477 Ry
     estimated scf accuracy    <       0.00000007 Ry

     iteration #  7     ecut=    40.00 Ry     beta= 0.50
     Davidson diagonalization with overlap
     ethr =  2.12E-10,  avg # of iterations =  2.0

     total cpu time spent up to now is     2141.9 secs

     total energy              =     -91.15922474 Ry
     Harris-Foulkes estimate   =     -91.15922475 Ry
     estimated scf accuracy    <          1.8E-09 Ry

     iteration #  8     ecut=    40.00 Ry     beta= 0.50
     Davidson diagonalization with overlap
     ethr =  5.56E-12,  avg # of iterations =  2.2

     total cpu time spent up to now is     2157.1 secs

     total energy              =     -91.15922474 Ry
     Harris-Foulkes estimate   =     -91.15922475 Ry
     estimated scf accuracy    <          2.8E-10 Ry

     iteration #  9     ecut=    40.00 Ry     beta= 0.50
     Davidson diagonalization with overlap
     ethr =  8.63E-13,  avg # of iterations =  2.0

     total cpu time spent up to now is     2172.2 secs

     End of self-consistent calculation

          k = 0.0000 0.0000 0.0000 (  2349 PWs)   bands (ev):

   -13.8116 -12.2700 -12.2698  -8.4459  -7.4768  -1.6813  -1.6810  -1.3178
    -0.7020  -0.2928  -0.2925   0.6933   0.6934   2.6898   2.7427   3.1953
     7.0913   9.2765  12.9311  13.0497

          k = 0.0000-0.0001 0.5467 (  2358 PWs)   bands (ev):

   -13.1064 -11.5823 -11.5821  -7.8428  -6.9354  -3.1210  -2.4364  -2.4339
    -0.8311  -0.8283  -0.5032   0.4803   0.5091   0.5097   1.2654   4.0564
     6.8724  10.1737  11.7221  11.7234

          k = 0.0000-0.0003 1.0933 (  2342 PWs)   bands (ev):

   -11.0321  -9.5834  -9.5829  -7.8596  -6.1404  -6.1392  -6.0468  -4.4098
    -3.1393  -1.7273  -0.7193  -0.7181   1.8092   2.5826   2.5845   4.9391
     6.5788   8.2096   8.2118  10.4939

          k = 0.0144 0.4898 0.0001 (  2362 PWs)   bands (ev):

   -13.5987 -13.0481 -11.2058  -9.7854  -5.9503  -3.8797  -1.6103  -1.5378
    -0.5309  -0.0445   0.4253   1.5573   1.5779   2.0510   2.3897   2.7669
     8.3424  10.8116  11.0679  12.7575

          k = 0.0144 0.4897 0.5468 (  2347 PWs)   bands (ev):

   -12.8971 -12.3537 -10.5307  -9.1409  -5.5236  -3.8101  -2.8918  -2.1601
    -1.2920  -0.7815  -0.7030  -0.1884   0.5856   1.2998   2.3034   3.5387
     7.9599   9.8771  11.9104  13.3902

          k = 0.0145 0.4896 1.0935 (  2345 PWs)   bands (ev):

   -10.8346 -10.3178  -8.6394  -7.8790  -6.8135  -6.8011  -5.1738  -3.9916
    -3.3714  -1.8686  -1.0308  -0.4277   1.5711   1.6324   3.7177   4.4583
     7.0211   7.4468   9.5462  10.3381

          k = 0.0144 0.4901-1.0932 (  2345 PWs)   bands (ev):

   -10.8347 -10.3175  -8.6404  -7.8774  -6.8117  -6.8035  -5.1747  -3.9908
    -3.3704  -1.8698  -1.0318  -0.4264   1.5708   1.6333   3.7152   4.4604
     7.0183   7.4498   9.5449  10.3390

          k = 0.0144 0.4899-0.5465 (  2348 PWs)   bands (ev):

   -12.8971 -12.3536 -10.5309  -9.1406  -5.5246  -3.8079  -2.8909  -2.1623
    -1.2943  -0.7816  -0.7027  -0.1866   0.5881   1.2976   2.3026   3.5395
     7.9586   9.8789  11.9099  13.3895

          k =-0.4822-0.0038 0.0000 (  2380 PWs)   bands (ev):

   -13.4188 -13.4167 -10.4539 -10.4516  -4.9465  -4.9449  -1.1340  -1.1255
    -0.3334  -0.3316   1.3156   1.3186   1.4901   1.4908   2.0230   2.0268
     9.5329   9.5371  10.4741  10.4920

          k =-0.4821-0.0039 0.5467 (  2345 PWs)   bands (ev):

   -12.7175 -12.7155  -9.7963  -9.7939  -4.6571  -4.6547  -2.6151  -2.6131
    -0.7059  -0.7022  -0.3202  -0.3119   1.0524   1.0561   2.2723   2.2734
     9.0464   9.0483  11.3417  11.3593

          k =-0.4821-0.0040 1.0933 (  2342 PWs)   bands (ev):

   -10.6580 -10.6561  -8.1198  -8.1167  -6.9771  -6.9742  -4.5527  -4.5499
    -2.6147  -2.6131  -0.6496  -0.6473   1.9438   1.9505   3.8690   3.8717
     7.2195   7.2245   9.6038   9.6053

          k =-0.4677 0.4860 0.0002 (  2354 PWs)   bands (ev):

   -13.6733 -12.7791 -11.7466  -9.0050  -6.9462  -2.7500  -2.1814  -0.6471
    -0.5857  -0.1957   0.2849   0.3102   1.1321   2.5201   2.6442   3.2961
     8.0213  10.7712  11.6324  13.0164

          k =-0.4677 0.4859 0.5468 (  2348 PWs)   bands (ev):

   -12.9731 -12.0833 -11.0659  -8.3828  -6.4314  -3.0704  -3.0399  -1.8467
    -1.5587  -1.3356  -0.0642   0.2641   0.5919   1.1025   1.3066   4.0972
     7.5026  10.8216  11.6587  12.4725

          k =-0.4677 0.4858 1.0935 (  2351 PWs)   bands (ev):

   -10.9138 -10.0489  -9.1124  -7.8031  -6.5662  -6.3552  -5.6715  -4.0960
    -3.4368  -1.5026  -1.1958  -0.4346   1.0898   2.6624   3.0782   4.4268
     6.9673   8.0925   8.7670  10.6511

          k =-0.4678 0.4863-1.0932 (  2351 PWs)   bands (ev):

   -10.9138 -10.0493  -9.1117  -7.8039  -6.5677  -6.3537  -5.6705  -4.0967
    -3.4374  -1.5020  -1.1947  -0.4358   1.0901   2.6609   3.0801   4.4254
     6.9688   8.0897   8.7693  10.6508

          k =-0.4678 0.4862-0.5465 (  2350 PWs)   bands (ev):

   -12.9731 -12.0834 -11.0657  -8.3831  -6.4307  -3.0730  -3.0403  -1.8443
    -1.5560  -1.3355  -0.0668   0.2626   0.5915   1.1031   1.3082   4.0965
     7.5036  10.8200  11.6583  12.4739

     the Fermi energy is     5.1751 ev

!    total energy              =     -91.15922474 Ry
     Harris-Foulkes estimate   =     -91.15922474 Ry
     estimated scf accuracy    <          1.5E-11 Ry

     The total energy is the sum of the following terms:

     one-electron contribution =     -42.24665455 Ry
     hartree contribution      =      35.35256803 Ry
     xc contribution           =     -27.96422345 Ry
     ewald contribution        =     -56.30124857 Ry
     smearing contrib. (-TS)   =       0.00033380 Ry

     convergence has been achieved in   9 iterations

     Forces acting on atoms (cartesian axes, Ry/au):

     atom    1 type  1   force =    -0.00053317    0.00038103   -0.00044372
     atom    2 type  1   force =     0.00017335   -0.00017792    0.00011132
     atom    3 type  1   force =    -0.00006919    0.00072030    0.00026928
     atom    4 type  1   force =     0.00034529   -0.00105030    0.00007442
     atom    5 type  1   force =     0.00067524   -0.00064971   -0.00041220
     atom    6 type  1   force =     0.00031113    0.00032190    0.00092073
     atom    7 type  1   force =    -0.00089399    0.00094335    0.00061170
     atom    8 type  1   force =    -0.00000866   -0.00048863   -0.00113153

     Total force =     0.002864     Total SCF correction =     0.000001


     Computing stress (Cartesian axis) and pressure

          total   stress  (Ry/bohr**3)                   (kbar)     P=       -0.24
   0.00000581   0.00000054  -0.00000182            0.85        0.08       -0.27
   0.00000054   0.00000145   0.00000117            0.08        0.21        0.17
  -0.00000182   0.00000117  -0.00001221           -0.27        0.17       -1.80


     number of scf cycles    =  36
     number of bfgs steps    =  34

     enthalpy old            =     -91.1591751182 Ry
     enthalpy new            =     -91.1591881814 Ry

     CASE: enthalpy_new < enthalpy_old

     new trust radius        =       0.0336723600 bohr
     new conv_thr            =            1.0E-10 Ry

     new unit-cell volume =    538.84720 a.u.^3 (    79.84892 Ang^3 )
     density =      1.99642 g/cm^3

CELL_PARAMETERS (bohr)
  13.330319637  -0.350033135  -0.000914020
  -0.039475810   8.652665765   0.001531567
   0.000061044  -0.001563494   4.672261549

ATOMIC_POSITIONS (crystal)
C             0.4644265225        0.9671962745        1.4046907822
C             0.7972673636        0.6317893335        0.4036203520
C            -0.0364134673        0.4653115072        0.4038901545
C             0.2980742329        0.1336441030       -0.5961222544
C             1.0474098534        0.3821437493        0.9039768579
C             0.7137544022        0.7157683072        0.9036191355
C             0.2142437872        0.2166943319       -0.0962517894
C             0.5479073054       -0.1167606065        1.9047387617



     Writing output data file ./pp.save/
     NEW-OLD atomic charge density approx. for the potential
     extrapolated charge   32.05824, renormalised to   32.00000

     total cpu time spent up to now is     2172.8 secs

     Self-consistent Calculation

     iteration #  1     ecut=    40.00 Ry     beta= 0.50
     Davidson diagonalization with overlap
     ethr =  1.00E-06,  avg # of iterations =  4.4

     total cpu time spent up to now is     2198.7 secs

     total energy              =     -91.15915130 Ry
     Harris-Foulkes estimate   =     -91.09631828 Ry
     estimated scf accuracy    <       0.00005388 Ry

     iteration #  2     ecut=    40.00 Ry     beta= 0.50
     Davidson diagonalization with overlap
     ethr =  1.68E-07,  avg # of iterations =  3.1

     total cpu time spent up to now is     2218.4 secs

     total energy              =     -91.15924659 Ry
     Harris-Foulkes estimate   =     -91.15925633 Ry
     estimated scf accuracy    <       0.00003486 Ry

     iteration #  3     ecut=    40.00 Ry     beta= 0.50
     Davidson diagonalization with overlap
     ethr =  1.09E-07,  avg # of iterations =  1.0

     total cpu time spent up to now is     2229.4 secs

     total energy              =     -91.15924161 Ry
     Harris-Foulkes estimate   =     -91.15924771 Ry
     estimated scf accuracy    <       0.00001247 Ry

     iteration #  4     ecut=    40.00 Ry     beta= 0.50
     Davidson diagonalization with overlap
     ethr =  3.90E-08,  avg # of iterations =  2.0

     total cpu time spent up to now is     2245.1 secs

     total energy              =     -91.15924425 Ry
     Harris-Foulkes estimate   =     -91.15924445 Ry
     estimated scf accuracy    <       0.00000109 Ry

     iteration #  5     ecut=    40.00 Ry     beta= 0.50
     Davidson diagonalization with overlap
