
     Program PWSCF v.6.5 starts on  9Jul2022 at  5:33:52 

     This program is part of the open-source Quantum ESPRESSO suite
     for quantum simulation of materials; please cite
         "P. Giannozzi et al., J. Phys.:Condens. Matter 21 395502 (2009);
         "P. Giannozzi et al., J. Phys.:Condens. Matter 29 465901 (2017);
          URL http://www.quantum-espresso.org", 
     in publications or presentations arising from this work. More details at
     http://www.quantum-espresso.org/quote

     Parallel version (MPI), running on    96 processors

     MPI processes distributed on     2 nodes
     R & G space division:  proc/nbgrp/npool/nimage =      96
     Waiting for input...
     Reading input from standard input
     Message from routine read_cards :
     DEPRECATED: no units specified in CELL_PARAMETERS card

     Current dimensions of program PWSCF are:
     Max number of different atomic species (ntypx) = 10
     Max number of k-points (npk) =  40000
     Max angular momentum in pseudopotentials (lmaxx) =  3

     Subspace diagonalization in iterative solution of the eigenvalue problem:
     one sub-group per band group will be used
     scalapack distributed-memory algorithm (size of sub-group:  9*  9 procs)

 
     Parallelization info
     --------------------
     sticks:   dense  smooth     PW     G-vecs:    dense   smooth      PW
     Min          14      14      4                  172      172      28
     Max          15      15      5                  174      174      31
     Sum        1351    1351    417                16619    16619    2811
 


     bravais-lattice index     =            0
     lattice parameter (alat)  =      14.1200  a.u.
     unit-cell volume          =     485.5208 (a.u.)^3
     number of atoms/cell      =            8
     number of atomic types    =            1
     number of electrons       =        32.00
     number of Kohn-Sham states=           20
     kinetic-energy cutoff     =      40.0000  Ry
     charge density cutoff     =     160.0000  Ry
     convergence threshold     =      1.0E-08
     mixing beta               =       0.5000
     number of iterations used =            8  plain     mixing
     Exchange-correlation=  SLA  PW   PBE  PBE
                           (   1   4   3   4   0   0   0)
     nstep                     =          250


     celldm(1)=  14.119992  celldm(2)=   0.000000  celldm(3)=   0.000000
     celldm(4)=   0.000000  celldm(5)=   0.000000  celldm(6)=   0.000000

     crystal axes: (cart. coord. in units of alat)
               a(1) = (   0.989448  -0.110765  -0.093399 )  
               a(2) = (  -0.051686   0.540340  -0.012472 )  
               a(3) = (  -0.030071  -0.004533   0.329172 )  

     reciprocal axes: (cart. coord. in units 2 pi/alat)
               b(1) = (  1.030972  0.100822  0.095571 )  
               b(2) = (  0.213862  1.872188  0.045316 )  
               b(3) = (  0.300632  0.099541  3.066764 )  


     PseudoPot. # 1 for C  read from file:
     ./C.pbe-van_bm.upf
     MD5 check sum: 1a69bf6b8db32088f5b2163dbdb77a27
     Pseudo is Ultrasoft, Zval =  4.0
     Generated by new atomic code, or converted to UPF format
     Using radial grid of  721 points,  4 beta functions with: 
                l(1) =   0
                l(2) =   0
                l(3) =   1
                l(4) =   1
     Q(r) pseudized with  8 coefficients,  rinner =    0.800   0.800   0.800


     atomic species   valence    mass     pseudopotential
        C              4.00    12.00000     C ( 1.00)

     No symmetry found



   Cartesian axes

     site n.     atom                  positions (alat units)
         1           C   tau(   1) = (   0.2910591   0.2065650   0.2170296  )
         2           C   tau(   2) = (   0.6419243   0.4976611   0.0711764  )
         3           C   tau(   3) = (   0.7149966   0.4373819   0.2438439  )
         4           C   tau(   4) = (   0.1277650   0.2987294   0.2035060  )
         5           C   tau(   5) = (   0.3906020   0.1591733   0.0596402  )
         6           C   tau(   6) = (   0.0582583   0.3505110   0.0317147  )
         7           C   tau(   7) = (   0.5454752   0.0586650   0.0718872  )
         8           C   tau(   8) = (   0.8627233   0.3355357   0.2551876  )

     number of k points=    16  Marzari-Vanderbilt smearing, width (Ry)=  0.0200
                       cart. coord. in units 2pi/alat
        k(    1) = (   0.0000000   0.0000000   0.0000000), wk =   0.0666667
        k(    2) = (   0.0601264   0.0199082   0.6133527), wk =   0.1333333
        k(    3) = (   0.1202528   0.0398164   1.2267055), wk =   0.1333333
        k(    4) = (   0.0712873   0.6240628   0.0151054), wk =   0.1333333
        k(    5) = (   0.1314137   0.6439710   0.6284582), wk =   0.1333333
        k(    6) = (   0.1915401   0.6638792   1.2418109), wk =   0.1333333
        k(    7) = (  -0.0489655   0.5842464  -1.2116000), wk =   0.1333333
        k(    8) = (   0.0111609   0.6041546  -0.5982473), wk =   0.1333333
        k(    9) = (  -0.5154862  -0.0504111  -0.0477854), wk =   0.0666667
        k(   10) = (  -0.4553598  -0.0305029   0.5655673), wk =   0.1333333
        k(   11) = (  -0.3952334  -0.0105947   1.1789201), wk =   0.1333333
        k(   12) = (  -0.4441989   0.5736517  -0.0326800), wk =   0.1333333
        k(   13) = (  -0.3840725   0.5935599   0.5806728), wk =   0.1333333
        k(   14) = (  -0.3239461   0.6134681   1.1940255), wk =   0.1333333
        k(   15) = (  -0.5644517   0.5338352  -1.2593854), wk =   0.1333333
        k(   16) = (  -0.5043253   0.5537434  -0.6460327), wk =   0.1333333

     Dense  grid:    16619 G-vectors     FFT dimensions: (  60,  32,  20)

     Estimated max dynamical RAM per process >       1.49 MB

     Estimated total dynamical RAM >     143.16 MB

     Initial potential from superposition of free atoms

     starting charge   31.99968, renormalised to   32.00000
     Starting wfcs are   32 randomized atomic wfcs

     total cpu time spent up to now is        0.6 secs

     Self-consistent Calculation

     iteration #  1     ecut=    40.00 Ry     beta= 0.50
     Davidson diagonalization with overlap
     ethr =  1.00E-02,  avg # of iterations =  2.0

     total cpu time spent up to now is        1.4 secs

     total energy              =     -90.72212678 Ry
     Harris-Foulkes estimate   =     -91.05163360 Ry
     estimated scf accuracy    <       0.67934452 Ry

     iteration #  2     ecut=    40.00 Ry     beta= 0.50
     Davidson diagonalization with overlap
     ethr =  2.12E-03,  avg # of iterations =  2.0

     total cpu time spent up to now is        2.1 secs

     total energy              =     -90.75172116 Ry
     Harris-Foulkes estimate   =     -90.78000501 Ry
     estimated scf accuracy    <       0.06159468 Ry

     iteration #  3     ecut=    40.00 Ry     beta= 0.50
     Davidson diagonalization with overlap
     ethr =  1.92E-04,  avg # of iterations =  3.7

     total cpu time spent up to now is        3.2 secs

     total energy              =     -90.76085565 Ry
     Harris-Foulkes estimate   =     -90.76316410 Ry
     estimated scf accuracy    <       0.00662477 Ry

     iteration #  4     ecut=    40.00 Ry     beta= 0.50
     Davidson diagonalization with overlap
     ethr =  2.07E-05,  avg # of iterations =  4.6

     total cpu time spent up to now is        4.3 secs

     total energy              =     -90.76160238 Ry
     Harris-Foulkes estimate   =     -90.76280519 Ry
     estimated scf accuracy    <       0.00357666 Ry

     iteration #  5     ecut=    40.00 Ry     beta= 0.50
     Davidson diagonalization with overlap
     ethr =  1.12E-05,  avg # of iterations =  3.3

     total cpu time spent up to now is        5.2 secs

     total energy              =     -90.76219179 Ry
     Harris-Foulkes estimate   =     -90.76261304 Ry
     estimated scf accuracy    <       0.00157957 Ry

     iteration #  6     ecut=    40.00 Ry     beta= 0.50
     Davidson diagonalization with overlap
     ethr =  4.94E-06,  avg # of iterations =  2.6

     total cpu time spent up to now is        6.0 secs

     total energy              =     -90.76238455 Ry
     Harris-Foulkes estimate   =     -90.76242028 Ry
     estimated scf accuracy    <       0.00012699 Ry

     iteration #  7     ecut=    40.00 Ry     beta= 0.50
     Davidson diagonalization with overlap
     ethr =  3.97E-07,  avg # of iterations =  2.3

     total cpu time spent up to now is        6.7 secs

     total energy              =     -90.76240221 Ry
     Harris-Foulkes estimate   =     -90.76241081 Ry
     estimated scf accuracy    <       0.00002812 Ry

     iteration #  8     ecut=    40.00 Ry     beta= 0.50
     Davidson diagonalization with overlap
     ethr =  8.79E-08,  avg # of iterations =  2.0

     total cpu time spent up to now is        7.5 secs

     total energy              =     -90.76240678 Ry
     Harris-Foulkes estimate   =     -90.76240673 Ry
     estimated scf accuracy    <       0.00000081 Ry

     iteration #  9     ecut=    40.00 Ry     beta= 0.50
     Davidson diagonalization with overlap
     ethr =  2.52E-09,  avg # of iterations =  3.2

     total cpu time spent up to now is        8.5 secs

     total energy              =     -90.76240716 Ry
     Harris-Foulkes estimate   =     -90.76240725 Ry
     estimated scf accuracy    <       0.00000032 Ry

     iteration # 10     ecut=    40.00 Ry     beta= 0.50
     Davidson diagonalization with overlap
     ethr =  1.01E-09,  avg # of iterations =  2.0

     total cpu time spent up to now is        9.3 secs

     total energy              =     -90.76240721 Ry
     Harris-Foulkes estimate   =     -90.76240721 Ry
     estimated scf accuracy    <       0.00000001 Ry

     iteration # 11     ecut=    40.00 Ry     beta= 0.50
     Davidson diagonalization with overlap
     ethr =  3.22E-11,  avg # of iterations =  3.0

     total cpu time spent up to now is       10.4 secs

     End of self-consistent calculation

          k = 0.0000 0.0000 0.0000 (  2083 PWs)   bands (ev):

   -12.5685 -11.3582 -10.6664  -7.2502  -6.8643  -2.4915  -1.5012   0.3445
     0.9163   0.9528   1.1828   1.7736   1.8941   2.7828   4.6542   5.7136
     8.8185  11.1295  11.6940  12.9973

          k = 0.0601 0.0199 0.6134 (  2078 PWs)   bands (ev):

   -11.8518 -10.7537  -9.9151  -6.9727  -6.1246  -2.5342  -1.6602  -1.2617
    -0.5840   0.4985   1.1234   1.1631   1.6352   1.9199   4.9395   6.3877
     6.5478   8.5140  11.7962  12.6928

          k = 0.1203 0.0398 1.2267 (  2077 PWs)   bands (ev):

    -9.7815  -8.9764  -7.9903  -6.7544  -6.0737  -4.3872  -3.9822  -3.2065
    -2.1494  -1.0795  -0.6331   3.1877   3.4060   3.6909   4.6119   5.5010
     5.5282   6.8992   9.2655  10.9402

          k = 0.0713 0.6241 0.0151 (  2085 PWs)   bands (ev):

   -12.3027 -11.5123 -10.3605  -8.4337  -5.7548  -3.7246  -0.9235  -0.3847
    -0.2657   0.9223   1.4472   2.0565   2.6151   3.0053   4.8491   7.7240
     9.0512  10.6588  11.6181  13.7335

          k = 0.1314 0.6440 0.6285 (  2073 PWs)   bands (ev):

   -11.6138 -10.7442  -9.8713  -7.6069  -5.7134  -3.0796  -1.5444  -0.8740
    -0.4715   0.0508   0.2400   0.3995   1.0170   3.6200   5.5526   6.5300
     7.7311   8.3583  11.4213  13.2766

          k = 0.1915 0.6639 1.2418 (  2077 PWs)   bands (ev):

    -9.6014  -8.7490  -8.2420  -6.6358  -6.2014  -4.3459  -4.0470  -3.3981
    -2.2062  -1.0380  -0.6285   1.9311   2.5681   4.2348   4.6043   5.3091
     6.3969   7.2245   9.7356  11.4051

          k =-0.0490 0.5842-1.2116 (  2072 PWs)   bands (ev):

    -9.5410  -9.1013  -7.5330  -7.2683  -5.9031  -4.6162  -4.1970  -2.6679
    -2.4032  -1.1022  -0.7936   1.7958   2.9984   4.1898   4.4395   5.6545
     5.7083   7.5742   9.4793  11.7626

          k = 0.0112 0.6042-0.5982 (  2067 PWs)   bands (ev):

   -11.5882 -10.9297  -9.5297  -8.0431  -5.0358  -3.7494  -1.5338  -0.4385
    -0.3509  -0.2956   0.2993   0.7688   0.8607   3.5902   4.8721   6.6986
     8.1027   8.5807  10.5207  13.9689

          k =-0.5155-0.0504-0.0478 (  2066 PWs)   bands (ev):

   -12.3884 -11.9080  -9.9191  -8.4620  -5.3552  -3.9972  -0.1647   0.3742
     0.8701   0.8811   1.2239   1.5425   2.1366   2.5444   3.2482   8.0478
     9.2338  10.0668  10.5243  12.7819

          k =-0.4554-0.0305 0.5656 (  2077 PWs)   bands (ev):

   -11.7174 -11.1635  -9.3418  -7.8244  -5.0790  -3.5831  -1.6181  -0.5331
    -0.3252   0.2974   0.7994   1.1286   1.6030   2.2901   3.8470   6.7467
     8.1825   8.2311  10.0138  13.2764

          k =-0.3952-0.0106 1.1789 (  2073 PWs)   bands (ev):

    -9.7447  -9.0929  -7.7990  -6.9488  -5.9375  -4.5187  -4.0520  -2.9910
    -2.1407  -1.1201  -0.6837   3.1092   3.3029   4.0771   4.5542   5.1822
     5.6070   7.0134   9.2734  11.1440

          k =-0.4442 0.5737-0.0327 (  2080 PWs)   bands (ev):

   -12.2524 -11.5826 -10.4490  -7.9345  -6.5708  -2.8684  -1.2965  -1.0456
     0.8559   0.9313   1.5889   1.7816   1.9916   2.6898   5.5220   7.8594
     8.8350  10.9924  11.4228  13.0682

          k =-0.3841 0.5936 0.5807 (  2072 PWs)   bands (ev):

   -11.5312 -10.9720  -9.6428  -7.7237  -5.6802  -3.1081  -1.5689  -0.8037
    -0.5619  -0.4015   0.3370   0.9796   1.7346   2.3377   5.6741   6.5557
     8.3213   8.5526  10.5470  13.7916

          k =-0.3239 0.6135 1.1940 (  2070 PWs)   bands (ev):

    -9.5043  -9.0898  -7.6885  -7.1529  -5.9170  -4.5947  -4.1951  -2.8835
    -2.2421  -1.1251  -0.7310   1.6604   3.0510   4.1691   4.4809   5.6337
     5.9191   7.3685   9.7147  11.8450

          k =-0.5645 0.5338-1.2594 (  2070 PWs)   bands (ev):

    -9.6276  -8.7455  -8.2701  -6.4962  -6.2565  -4.2340  -4.1409  -3.4550
    -2.2385  -0.9700  -0.6417   1.9864   2.7378   4.0543   4.6452   5.2409
     6.3839   6.9282  10.1335  11.2970

          k =-0.5043 0.5537-0.6460 (  2081 PWs)   bands (ev):

   -11.5980 -10.7938  -9.9275  -7.0447  -6.4222  -2.4118  -1.6699  -1.2744
    -0.4999  -0.3483   0.4304   1.1164   1.2149   2.6844   6.1458   6.3700
     7.4630   8.4934  11.6283  13.0624

     the Fermi energy is     6.5280 ev

!    total energy              =     -90.76240721 Ry
     Harris-Foulkes estimate   =     -90.76240721 Ry
     estimated scf accuracy    <          3.4E-09 Ry

     The total energy is the sum of the following terms:

     one-electron contribution =     -16.91237555 Ry
     hartree contribution      =      23.92217153 Ry
     xc contribution           =     -27.66593432 Ry
     ewald contribution        =     -70.10436573 Ry
     smearing contrib. (-TS)   =      -0.00190314 Ry

     convergence has been achieved in  11 iterations

     Forces acting on atoms (cartesian axes, Ry/au):

     atom    1 type  1   force =    -0.00044715   -0.00171205    0.00102320
     atom    2 type  1   force =     0.03168690   -0.01233617    0.00553290
     atom    3 type  1   force =    -0.03288306    0.01262923   -0.00619644
     atom    4 type  1   force =     0.00085704    0.00117503   -0.00098069
     atom    5 type  1   force =     0.00533942   -0.01496064   -0.00091611
     atom    6 type  1   force =    -0.00494286    0.01492515    0.00092967
     atom    7 type  1   force =    -0.02628898    0.01790738   -0.00188297
     atom    8 type  1   force =     0.02667869   -0.01762794    0.00249044

     Total force =     0.070842     Total SCF correction =     0.000095


     Computing stress (Cartesian axis) and pressure

          total   stress  (Ry/bohr**3)                   (kbar)     P=        2.40
   0.00026679  -0.00002276   0.00010107           39.25       -3.35       14.87
  -0.00002276   0.00033446  -0.00000251           -3.35       49.20       -0.37
   0.00010107  -0.00000251  -0.00055239           14.87       -0.37      -81.26


     BFGS Geometry Optimization

     number of scf cycles    =   1
     number of bfgs steps    =   0

     enthalpy new            =     -90.7623742048 Ry

     new trust radius        =       0.0618771109 bohr
     new conv_thr            =       0.0000000100 Ry

     new unit-cell volume =    486.03395 a.u.^3 (    72.02280 Ang^3 )
     density =      2.21335 g/cm^3

CELL_PARAMETERS (bohr)
  14.061717126  -1.584940807  -1.265185778
  -0.739452323   7.693807433  -0.175990978
  -0.415650741  -0.064585343   4.582636359

ATOMIC_POSITIONS (crystal)
C             0.3416040520        0.4585795087        0.7738426423
C             0.7210469864        1.0710860199        0.4625913952
C             0.8021912774        0.9839785908        1.0043430879
C             0.1813543292        0.5959896325        0.6920645323
C             0.4247248327        0.3823342805        0.3159832421
C             0.0981849606        0.6720260640        0.1498678955
C             0.5733506285        0.2317161459        0.3894455477
C             0.9495009333        0.8223287577        1.0763466571



     Writing output data file ./pp.save/
     NEW-OLD atomic charge density approx. for the potential
     extrapolated charge   32.03378, renormalised to   32.00000

     total cpu time spent up to now is       10.6 secs

     Self-consistent Calculation

     iteration #  1     ecut=    40.00 Ry     beta= 0.50
     Davidson diagonalization with overlap
     ethr =  1.00E-06,  avg # of iterations =  9.0

     total cpu time spent up to now is       13.3 secs

     total energy              =     -90.76125592 Ry
     Harris-Foulkes estimate   =     -90.75496894 Ry
     estimated scf accuracy    <       0.01127492 Ry

     iteration #  2     ecut=    40.00 Ry     beta= 0.50
     Davidson diagonalization with overlap
     ethr =  3.52E-05,  avg # of iterations =  3.4

     total cpu time spent up to now is       14.5 secs

     total energy              =     -90.76134261 Ry
     Harris-Foulkes estimate   =     -90.76815351 Ry
     estimated scf accuracy    <       0.01982899 Ry

     iteration #  3     ecut=    40.00 Ry     beta= 0.50
     Davidson diagonalization with overlap
     ethr =  3.52E-05,  avg # of iterations =  3.2

     total cpu time spent up to now is       15.5 secs

     total energy              =     -90.76483765 Ry
     Harris-Foulkes estimate   =     -90.76526438 Ry
     estimated scf accuracy    <       0.00128647 Ry

     iteration #  4     ecut=    40.00 Ry     beta= 0.50
     Davidson diagonalization with overlap
     ethr =  4.02E-06,  avg # of iterations =  2.5

     total cpu time spent up to now is       16.3 secs

     total energy              =     -90.76501605 Ry
     Harris-Foulkes estimate   =     -90.76503942 Ry
     estimated scf accuracy    <       0.00005524 Ry

     iteration #  5     ecut=    40.00 Ry     beta= 0.50
     Davidson diagonalization with overlap
     ethr =  1.73E-07,  avg # of iterations =  2.5

     total cpu time spent up to now is       17.3 secs

     total energy              =     -90.76503063 Ry
     Harris-Foulkes estimate   =     -90.76503532 Ry
     estimated scf accuracy    <       0.00001348 Ry

     iteration #  6     ecut=    40.00 Ry     beta= 0.50
     Davidson diagonalization with overlap
     ethr =  4.21E-08,  avg # of iterations =  2.1

     total cpu time spent up to now is       18.2 secs

     total energy              =     -90.76503202 Ry
     Harris-Foulkes estimate   =     -90.76503420 Ry
     estimated scf accuracy    <       0.00000764 Ry

     iteration #  7     ecut=    40.00 Ry     beta= 0.50
     Davidson diagonalization with overlap
     ethr =  2.39E-08,  avg # of iterations =  1.4

     total cpu time spent up to now is       18.9 secs

     total energy              =     -90.76503324 Ry
     Harris-Foulkes estimate   =     -90.76503342 Ry
     estimated scf accuracy    <       0.00000113 Ry

     iteration #  8     ecut=    40.00 Ry     beta= 0.50
     Davidson diagonalization with overlap
     ethr =  3.52E-09,  avg # of iterations =  2.1

     total cpu time spent up to now is       19.7 secs

     total energy              =     -90.76503339 Ry
     Harris-Foulkes estimate   =     -90.76503343 Ry
     estimated scf accuracy    <       0.00000013 Ry

     iteration #  9     ecut=    40.00 Ry     beta= 0.50
     Davidson diagonalization with overlap
     ethr =  4.09E-10,  avg # of iterations =  2.0

     total cpu time spent up to now is       20.6 secs

     End of self-consistent calculation

          k = 0.0000 0.0000 0.0000 (  2083 PWs)   bands (ev):

   -12.6295 -11.4860 -10.8147  -7.1656  -7.0557  -2.6816  -1.5299   0.2901
     0.8092   1.0787   1.2075   1.7343   1.8148   2.8916   4.7278   5.4894
     9.1378  11.0723  11.6190  12.8890

          k = 0.0582 0.0198 0.6218 (  2078 PWs)   bands (ev):

   -11.8908 -10.8552 -10.0453  -6.9307  -6.1847  -2.6563  -1.5146  -1.1977
    -0.7202   0.5005   1.0961   1.1379   1.5369   1.8483   5.0027   6.2960
     6.5880   8.3383  11.8366  12.6456

          k = 0.1164 0.0396 1.2436 (  2077 PWs)   bands (ev):

    -9.7517  -8.9798  -8.0098  -6.6787  -5.9374  -4.4386  -4.1425  -3.3449
    -2.0975  -1.1964  -0.6538   3.2268   3.4475   3.7462   4.4263   5.2472
     5.5718   7.0113   9.2401  10.9015

          k = 0.0711 0.6189 0.0152 (  2085 PWs)   bands (ev):

   -12.3665 -11.6520 -10.5362  -8.4317  -5.7854  -3.9224  -0.9461  -0.3939
    -0.3300   1.1981   1.3577   1.9425   2.7768   2.7969   4.8914   7.4762
     9.3833  10.6308  11.6208  13.3857

          k = 0.1293 0.6387 0.6370 (  2073 PWs)   bands (ev):

   -11.6582 -10.8616 -10.0058  -7.5785  -5.7230  -3.2010  -1.3635  -0.8463
    -0.6262   0.0601   0.2098   0.4271   0.9803   3.4751   5.6186   6.6142
     7.5618   8.1936  11.4639  13.2628

          k = 0.1875 0.6586 1.2588 (  2077 PWs)   bands (ev):

    -9.5795  -8.7709  -8.2552  -6.5544  -6.0654  -4.3877  -4.1912  -3.5509
    -2.1526  -1.1518  -0.6510   2.0126   2.6496   4.3494   4.4300   5.0786
     6.3308   7.3253   9.7250  11.2752

          k =-0.0452 0.5793-1.2284 (  2072 PWs)   bands (ev):

    -9.5095  -9.1228  -7.6630  -7.0827  -5.7373  -4.6642  -4.3936  -2.7243
    -2.4756  -1.1479  -0.8240   1.8860   3.0614   4.2141   4.3852   5.4511
     5.6048   7.7098   9.4009  11.6238

          k = 0.0129 0.5991-0.6066 (  2067 PWs)   bands (ev):

   -11.6271 -11.0451  -9.7058  -7.9817  -4.9767  -3.9388  -1.3558  -0.5413
    -0.3665  -0.2899   0.3613   0.7001   0.8188   3.4284   4.9524   6.7910
     7.9253   8.3784  10.6044  13.9624

          k =-0.5120-0.0503-0.0471 (  2066 PWs)   bands (ev):

   -12.4358 -12.0362 -10.1377  -8.4390  -5.3351  -4.2589  -0.1429   0.3238
     0.7359   1.0935   1.1413   1.4112   1.9971   2.7443   3.2765   7.7733
     9.5756  10.1812  10.4800  12.6590

          k =-0.4538-0.0305 0.5746 (  2077 PWs)   bands (ev):

   -11.7471 -11.2653  -9.5263  -7.7695  -5.0383  -3.7643  -1.4437  -0.5656
    -0.4196   0.3680   0.7280   1.0995   1.5110   2.1840   3.9086   6.8313
     8.0094   8.0441  10.1151  13.2276

          k =-0.3956-0.0107 1.1964 (  2073 PWs)   bands (ev):

    -9.7110  -9.1033  -7.8188  -6.8723  -5.7897  -4.5640  -4.2447  -3.0784
    -2.1600  -1.1882  -0.7154   3.1579   3.3387   4.1277   4.3657   5.2258
     5.3540   7.1345   9.2413  11.0896

          k =-0.4409 0.5686-0.0320 (  2080 PWs)   bands (ev):

   -12.3163 -11.7164 -10.6183  -7.9337  -6.6448  -3.0416  -1.3235  -1.0711
     0.7655   1.2129   1.5127   1.6939   1.8933   2.8254   5.4741   7.6150
     9.1584  10.9509  11.4358  12.8396

          k =-0.3827 0.5885 0.5898 (  2072 PWs)   bands (ev):

   -11.5691 -11.0858  -9.8042  -7.6730  -5.6973  -3.2268  -1.3906  -0.7775
    -0.5632  -0.5518   0.3780   0.9405   1.6718   2.2743   5.6647   6.6366
     8.1544   8.3820  10.5958  13.7787

          k =-0.3245 0.6083 1.2116 (  2070 PWs)   bands (ev):

    -9.4727  -9.1125  -7.7643  -7.0193  -5.7530  -4.6476  -4.3808  -2.9825
    -2.2595  -1.1956  -0.7539   1.7506   3.1226   4.2269   4.3533   5.3988
     5.8710   7.4978   9.6494  11.6945

          k =-0.5572 0.5290-1.2756 (  2070 PWs)   bands (ev):

    -9.6054  -8.7646  -8.2846  -6.4272  -6.1098  -4.2738  -4.2436  -3.6648
    -2.1600  -1.1119  -0.6487   2.0625   2.8278   4.1649   4.4700   5.0042
     6.3351   7.0234  10.1115  11.1689

          k =-0.4990 0.5488-0.6538 (  2081 PWs)   bands (ev):

   -11.6433 -10.9040 -10.0601  -6.9761  -6.4983  -2.5310  -1.5454  -1.1797
    -0.6543  -0.3467   0.4457   1.0953   1.1798   2.5987   6.1599   6.4518
     7.3191   8.3319  11.6237  13.0507

     the Fermi energy is     6.5493 ev

!    total energy              =     -90.76503341 Ry
     Harris-Foulkes estimate   =     -90.76503341 Ry
     estimated scf accuracy    <          1.9E-09 Ry

     The total energy is the sum of the following terms:

     one-electron contribution =     -17.73613514 Ry
     hartree contribution      =      24.30192333 Ry
     xc contribution           =     -27.67285907 Ry
     ewald contribution        =     -69.65712061 Ry
     smearing contrib. (-TS)   =      -0.00084193 Ry

     convergence has been achieved in   9 iterations

     Forces acting on atoms (cartesian axes, Ry/au):

     atom    1 type  1   force =    -0.02233655    0.00955310   -0.00404197
     atom    2 type  1   force =    -0.02610778    0.02255078   -0.00288758
     atom    3 type  1   force =     0.02595851   -0.02311546    0.00234384
     atom    4 type  1   force =     0.02258856   -0.00992309    0.00404956
     atom    5 type  1   force =    -0.00428767   -0.00627782    0.00104075
     atom    6 type  1   force =     0.00473629    0.00624987   -0.00093479
     atom    7 type  1   force =     0.02784026   -0.01901712    0.00248938
     atom    8 type  1   force =    -0.02839161    0.01997974   -0.00205919

     Total force =     0.078214     Total SCF correction =     0.000051


     Computing stress (Cartesian axis) and pressure

          total   stress  (Ry/bohr**3)                   (kbar)     P=        0.87
  -0.00021308   0.00028740   0.00001487          -31.35       42.28        2.19
   0.00028740   0.00009548   0.00000675           42.28       14.05        0.99
   0.00001487   0.00000675   0.00013539            2.19        0.99       19.92


     number of scf cycles    =   2
     number of bfgs steps    =   1

     enthalpy old            =     -90.7623742048 Ry
     enthalpy new            =     -90.7650003705 Ry

     CASE: enthalpy_new < enthalpy_old

     new trust radius        =       0.0255290308 bohr
     new conv_thr            =       0.0000000026 Ry

     new unit-cell volume =    486.31066 a.u.^3 (    72.06380 Ang^3 )
     density =      2.21209 g/cm^3

CELL_PARAMETERS (bohr)
  14.026883325  -1.526479111  -1.252084750
  -0.703248452   7.717806861  -0.175690954
  -0.411100978  -0.066364669   4.577351058

ATOMIC_POSITIONS (crystal)
C             0.3405345894        0.4591364864        0.7730374309
C             0.7204158079        1.0725391700        0.4623392337
C             0.8027883991        0.9824772949        1.0044728903
C             0.1824407024        0.5953868091        0.6928761721
C             0.4245578782        0.3812780140        0.3159930308
C             0.0983810456        0.6730849138        0.1498822208
C             0.5741916959        0.2307930832        0.3899114146
C             0.9486478815        0.8233432286        1.0759726068



     Writing output data file ./pp.save/
     NEW-OLD atomic charge density approx. for the potential
     extrapolated charge   32.01821, renormalised to   32.00000

     total cpu time spent up to now is       20.6 secs

     Self-consistent Calculation

     iteration #  1     ecut=    40.00 Ry     beta= 0.50
     Davidson diagonalization with overlap
     ethr =  1.00E-06,  avg # of iterations =  6.4

     total cpu time spent up to now is       23.0 secs

     total energy              =     -90.76681785 Ry
     Harris-Foulkes estimate   =     -90.76032544 Ry
     estimated scf accuracy    <       0.00194237 Ry

     iteration #  2     ecut=    40.00 Ry     beta= 0.50
     Davidson diagonalization with overlap
     ethr =  6.07E-06,  avg # of iterations =  3.1

     total cpu time spent up to now is       24.2 secs

     total energy              =     -90.76691507 Ry
     Harris-Foulkes estimate   =     -90.76790135 Ry
     estimated scf accuracy    <       0.00276348 Ry

     iteration #  3     ecut=    40.00 Ry     beta= 0.50
     Davidson diagonalization with overlap
     ethr =  6.07E-06,  avg # of iterations =  3.1

     total cpu time spent up to now is       25.4 secs

     total energy              =     -90.76738831 Ry
     Harris-Foulkes estimate   =     -90.76748722 Ry
     estimated scf accuracy    <       0.00028445 Ry

     iteration #  4     ecut=    40.00 Ry     beta= 0.50
     Davidson diagonalization with overlap
     ethr =  8.89E-07,  avg # of iterations =  2.0

     total cpu time spent up to now is       26.4 secs

     total energy              =     -90.76743326 Ry
     Harris-Foulkes estimate   =     -90.76743840 Ry
     estimated scf accuracy    <       0.00001453 Ry

     iteration #  5     ecut=    40.00 Ry     beta= 0.50
     Davidson diagonalization with overlap
     ethr =  4.54E-08,  avg # of iterations =  2.5

     total cpu time spent up to now is       27.6 secs

     total energy              =     -90.76743651 Ry
     Harris-Foulkes estimate   =     -90.76743756 Ry
     estimated scf accuracy    <       0.00000295 Ry

     iteration #  6     ecut=    40.00 Ry     beta= 0.50
     Davidson diagonalization with overlap
     ethr =  9.23E-09,  avg # of iterations =  2.0

     total cpu time spent up to now is       28.7 secs

     total energy              =     -90.76743682 Ry
     Harris-Foulkes estimate   =     -90.76743719 Ry
     estimated scf accuracy    <       0.00000116 Ry

     iteration #  7     ecut=    40.00 Ry     beta= 0.50
     Davidson diagonalization with overlap
     ethr =  3.63E-09,  avg # of iterations =  2.0

     total cpu time spent up to now is       29.8 secs

     total energy              =     -90.76743702 Ry
     Harris-Foulkes estimate   =     -90.76743714 Ry
     estimated scf accuracy    <       0.00000056 Ry

     iteration #  8     ecut=    40.00 Ry     beta= 0.50
     Davidson diagonalization with overlap
     ethr =  1.75E-09,  avg # of iterations =  1.2

     total cpu time spent up to now is       30.7 secs

     total energy              =     -90.76743708 Ry
     Harris-Foulkes estimate   =     -90.76743710 Ry
     estimated scf accuracy    <       0.00000004 Ry

     iteration #  9     ecut=    40.00 Ry     beta= 0.50
     Davidson diagonalization with overlap
     ethr =  1.22E-10,  avg # of iterations =  2.0

     total cpu time spent up to now is       31.9 secs

     End of self-consistent calculation

          k = 0.0000 0.0000 0.0000 (  2083 PWs)   bands (ev):

   -12.6932 -11.5561 -10.8185  -7.3028  -7.1189  -2.6976  -1.6285   0.2277
     0.7286   1.0737   1.2124   1.5986   1.8980   3.0087   4.6986   5.5242
     9.0559  11.1679  11.5155  12.9134

          k = 0.0577 0.0194 0.6224 (  2078 PWs)   bands (ev):

   -11.9532 -10.9163 -10.0529  -7.0365  -6.2823  -2.6754  -1.5937  -1.2430
    -0.6587   0.5893   0.9765   1.0659   1.4613   1.8382   4.9841   6.3081
     6.5411   8.4073  11.8564  12.5465

          k = 0.1153 0.0388 1.2448 (  2077 PWs)   bands (ev):

    -9.8107  -9.0289  -8.0404  -6.7258  -6.0204  -4.4495  -4.1255  -3.3755
    -2.2017  -1.2289  -0.7425   3.1259   3.3809   3.6913   4.4203   5.2702
     5.5730   6.9745   9.3529  10.9674

          k = 0.0684 0.6164 0.0151 (  2085 PWs)   bands (ev):

   -12.4411 -11.7193 -10.5230  -8.5456  -5.8886  -3.9345  -0.9737  -0.4875
    -0.3895   1.2021   1.2307   2.0325   2.8020   2.8832   4.7771   7.5297
     9.3177  10.6931  11.5440  13.5255

          k = 0.1261 0.6358 0.6375 (  2073 PWs)   bands (ev):

   -11.7312 -10.9291  -9.9954  -7.6885  -5.8086  -3.2358  -1.3902  -0.9217
    -0.5740   0.0044   0.1852   0.5077   0.8633   3.4500   5.5303   6.5654
     7.5929   8.2544  11.4279  13.3400

          k = 0.1838 0.6553 1.2599 (  2077 PWs)   bands (ev):

    -9.6470  -8.8415  -8.2556  -6.6313  -6.1282  -4.3967  -4.1685  -3.5667
    -2.2755  -1.1611  -0.7485   1.9629   2.6080   4.2654   4.4154   5.1045
     6.3206   7.2780   9.8146  11.3450

          k =-0.0469 0.5776-1.2297 (  2072 PWs)   bands (ev):

    -9.5784  -9.1775  -7.6304  -7.1997  -5.8221  -4.6415  -4.3989  -2.7526
    -2.5199  -1.2503  -0.8842   1.8537   2.9834   4.2048   4.3245   5.4538
     5.6049   7.6580   9.4896  11.7073

          k = 0.0108 0.5970-0.6073 (  2067 PWs)   bands (ev):

   -11.7002 -11.1063  -9.6845  -8.1059  -5.1062  -3.9310  -1.3784  -0.4825
    -0.4460  -0.3146   0.4202   0.5919   0.7491   3.4566   4.8300   6.7601
     7.9726   8.4349  10.5371  14.0011

          k =-0.5127-0.0478-0.0467 (  2066 PWs)   bands (ev):

   -12.5088 -12.0821 -10.1260  -8.5797  -5.4641  -4.2543  -0.2316   0.2339
     0.6690   0.9861   1.1499   1.4447   2.0879   2.8456   3.2048   7.8752
     9.5127  10.1065  10.5325  12.5817

          k =-0.4550-0.0284 0.5757 (  2077 PWs)   bands (ev):

   -11.8146 -11.3143  -9.5147  -7.9074  -5.1523  -3.7802  -1.4572  -0.5672
    -0.4419   0.4316   0.6237   1.0157   1.4315   2.2286   3.8356   6.7923
     8.0851   8.1064  10.0665  13.1338

          k =-0.3973-0.0089 1.1981 (  2073 PWs)   bands (ev):

    -9.7676  -9.1601  -7.8241  -6.9517  -5.8666  -4.5630  -4.2377  -3.1106
    -2.2394  -1.2451  -0.7988   3.0775   3.2418   4.0988   4.3638   5.1906
     5.3730   7.1237   9.3447  11.1560

          k =-0.4443 0.5686-0.0317 (  2080 PWs)   bands (ev):

   -12.3977 -11.7683 -10.6267  -8.0377  -6.7233  -3.0750  -1.3634  -1.1633
     0.7339   1.2179   1.4322   1.6022   1.9772   2.9398   5.4094   7.6312
     9.0845  11.0338  11.4119  12.8471

          k =-0.3866 0.5881 0.5908 (  2072 PWs)   bands (ev):

   -11.6490 -11.1351  -9.8040  -7.7797  -5.7909  -3.2528  -1.4189  -0.8628
    -0.5898  -0.5052   0.4569   0.8249   1.5948   2.2785   5.5926   6.5981
     8.2073   8.4041  10.5802  13.8271

          k =-0.3289 0.6075 1.2132 (  2070 PWs)   bands (ev):

    -9.5445  -9.1632  -7.7664  -7.0958  -5.8451  -4.6315  -4.3779  -3.0087
    -2.3140  -1.2812  -0.8243   1.7095   3.0632   4.1851   4.3155   5.4064
     5.8647   7.4560   9.7369  11.7762

          k =-0.5596 0.5298-1.2765 (  2070 PWs)   bands (ev):

    -9.6731  -8.8301  -8.2944  -6.4834  -6.1912  -4.2798  -4.2257  -3.6738
    -2.2909  -1.1080  -0.7540   2.0066   2.8091   4.0555   4.4528   5.0379
     6.3328   6.9835  10.1945  11.2268

          k =-0.5019 0.5492-0.6541 (  2081 PWs)   bands (ev):

   -11.7199 -10.9588 -10.0676  -7.0893  -6.5648  -2.5609  -1.6305  -1.2161
    -0.5989  -0.3937   0.5379   0.9880   1.1515   2.5353   6.1038   6.3992
     7.3174   8.4025  11.6372  13.0861

     the Fermi energy is     6.5194 ev

!    total energy              =     -90.76743709 Ry
     Harris-Foulkes estimate   =     -90.76743709 Ry
     estimated scf accuracy    <          1.5E-09 Ry

     The total energy is the sum of the following terms:

     one-electron contribution =     -18.74464548 Ry
     hartree contribution      =      24.79145177 Ry
     xc contribution           =     -27.72313290 Ry
     ewald contribution        =     -69.08995072 Ry
     smearing contrib. (-TS)   =      -0.00115976 Ry

     convergence has been achieved in   9 iterations

     Forces acting on atoms (cartesian axes, Ry/au):

     atom    1 type  1   force =     0.01310524   -0.01203581    0.00206485
     atom    2 type  1   force =    -0.00162312    0.00285768    0.00009710
     atom    3 type  1   force =     0.00127640   -0.00313356   -0.00052502
     atom    4 type  1   force =    -0.01302154    0.01181407   -0.00204131
     atom    5 type  1   force =    -0.00735648   -0.00220545   -0.00224602
     atom    6 type  1   force =     0.00720549    0.00246336    0.00230881
     atom    7 type  1   force =     0.00266348   -0.00195682    0.00043759
     atom    8 type  1   force =    -0.00224947    0.00219653   -0.00009599

     Total force =     0.028374     Total SCF correction =     0.000077


     Computing stress (Cartesian axis) and pressure

          total   stress  (Ry/bohr**3)                   (kbar)     P=       25.53
   0.00013212   0.00005197  -0.00000852           19.43        7.64       -1.25
   0.00005197   0.00022090   0.00001446            7.64       32.50        2.13
  -0.00000852   0.00001446   0.00016760           -1.25        2.13       24.65


     number of scf cycles    =   3
     number of bfgs steps    =   2

     enthalpy old            =     -90.7650003705 Ry
     enthalpy new            =     -90.7674040343 Ry

     CASE: enthalpy_new < enthalpy_old

     new trust radius        =       0.0344484285 bohr
     new conv_thr            =       0.0000000013 Ry

     new unit-cell volume =    492.89929 a.u.^3 (    73.04014 Ang^3 )
     density =      2.18252 g/cm^3

CELL_PARAMETERS (bohr)
  14.057601263  -1.492329734  -1.255597229
  -0.680104090   7.770208037  -0.173360968
  -0.411656347  -0.066325392   4.594906171

ATOMIC_POSITIONS (crystal)
C             0.3409757708        0.4579434025        0.7733491209
C             0.7200587961        1.0735274877        0.4622479628
C             0.8030988646        0.9814233993        1.0044064629
C             0.1820117795        0.5965305713        0.6925727748
C             0.4239027597        0.3803783303        0.3153219026
C             0.0990400952        0.6740188775        0.1505760991
C             0.5747316635        0.2301825081        0.3902491034
C             0.9481382707        0.8240344234        1.0757615735



     Writing output data file ./pp.save/
     NEW-OLD atomic charge density approx. for the potential
     extrapolated charge   32.42774, renormalised to   32.00000

     total cpu time spent up to now is       31.9 secs

     Self-consistent Calculation

     iteration #  1     ecut=    40.00 Ry     beta= 0.50
     Davidson diagonalization with overlap
     ethr =  1.00E-06,  avg # of iterations =  6.7

     total cpu time spent up to now is       35.2 secs

     total energy              =     -90.76388814 Ry
     Harris-Foulkes estimate   =     -90.57695597 Ry
     estimated scf accuracy    <       0.00383203 Ry

     iteration #  2     ecut=    40.00 Ry     beta= 0.50
     Davidson diagonalization with overlap
     ethr =  1.20E-05,  avg # of iterations =  4.4

     total cpu time spent up to now is       37.5 secs

     total energy              =     -90.76788969 Ry
     Harris-Foulkes estimate   =     -90.77077366 Ry
     estimated scf accuracy    <       0.00931628 Ry

     iteration #  3     ecut=    40.00 Ry     beta= 0.50
     Davidson diagonalization with overlap
     ethr =  1.20E-05,  avg # of iterations =  3.2

     total cpu time spent up to now is       39.2 secs

     total energy              =     -90.76891530 Ry
     Harris-Foulkes estimate   =     -90.76915480 Ry
     estimated scf accuracy    <       0.00093608 Ry

     iteration #  4     ecut=    40.00 Ry     beta= 0.50
     Davidson diagonalization with overlap
     ethr =  2.93E-06,  avg # of iterations =  1.2

     total cpu time spent up to now is       40.3 secs

     total energy              =     -90.76879524 Ry
     Harris-Foulkes estimate   =     -90.76897008 Ry
     estimated scf accuracy    <       0.00043626 Ry

     iteration #  5     ecut=    40.00 Ry     beta= 0.50
     Davidson diagonalization with overlap
     ethr =  1.36E-06,  avg # of iterations =  1.6

     total cpu time spent up to now is       41.5 secs

     total energy              =     -90.76877738 Ry
     Harris-Foulkes estimate   =     -90.76882327 Ry
     estimated scf accuracy    <       0.00008388 Ry

     iteration #  6     ecut=    40.00 Ry     beta= 0.50
     Davidson diagonalization with overlap
     ethr =  2.62E-07,  avg # of iterations =  2.1

     total cpu time spent up to now is       43.1 secs

     total energy              =     -90.76879526 Ry
     Harris-Foulkes estimate   =     -90.76879599 Ry
     estimated scf accuracy    <       0.00000272 Ry

     iteration #  7     ecut=    40.00 Ry     beta= 0.50
     Davidson diagonalization with overlap
     ethr =  8.50E-09,  avg # of iterations =  2.4

     total cpu time spent up to now is       44.7 secs

     total energy              =     -90.76879559 Ry
     Harris-Foulkes estimate   =     -90.76879586 Ry
     estimated scf accuracy    <       0.00000081 Ry

     iteration #  8     ecut=    40.00 Ry     beta= 0.50
     Davidson diagonalization with overlap
     ethr =  2.54E-09,  avg # of iterations =  1.7

     total cpu time spent up to now is       46.1 secs

     total energy              =     -90.76879569 Ry
     Harris-Foulkes estimate   =     -90.76879571 Ry
     estimated scf accuracy    <       0.00000006 Ry

     iteration #  9     ecut=    40.00 Ry     beta= 0.50
     Davidson diagonalization with overlap
     ethr =  1.99E-10,  avg # of iterations =  3.0

     total cpu time spent up to now is       48.2 secs

     total energy              =     -90.76879570 Ry
     Harris-Foulkes estimate   =     -90.76879574 Ry
     estimated scf accuracy    <       0.00000009 Ry

     iteration # 10     ecut=    40.00 Ry     beta= 0.50
     Davidson diagonalization with overlap
     ethr =  1.99E-10,  avg # of iterations =  2.0

     total cpu time spent up to now is       49.9 secs

     End of self-consistent calculation

          k = 0.0000 0.0000 0.0000 (  2083 PWs)   bands (ev):

   -12.7763 -11.6358 -10.9232  -7.4715  -7.1702  -2.7885  -1.7604   0.1117
     0.6024   0.9440   0.9836   1.5169   1.8040   2.7669   4.5463   5.4932
     8.8466  11.0152  11.3033  12.7709

          k = 0.0574 0.0189 0.6200 (  2078 PWs)   bands (ev):

   -12.0434 -11.0016 -10.1644  -7.1742  -6.3819  -2.7818  -1.7466  -1.4173
    -0.7383   0.3816   0.8888   0.9366   1.3327   1.7038   4.8489   6.2240
     6.3886   8.2858  11.6928  12.3310

          k = 0.1148 0.0377 1.2400 (  2077 PWs)   bands (ev):

    -9.9220  -9.1365  -8.1724  -6.8595  -6.1787  -4.5842  -4.2229  -3.4849
    -2.3312  -1.3445  -0.8481   2.9608   3.2260   3.5641   4.3075   5.1718
     5.4467   6.8225   9.1717  10.8210

          k = 0.0663 0.6119 0.0148 (  2085 PWs)   bands (ev):

   -12.5354 -11.8094 -10.6169  -8.6496  -5.9901  -4.0259  -1.0498  -0.6304
    -0.4917   0.9782   1.1612   1.9479   2.6271   2.6457   4.6219   7.4266
     9.0924  10.5608  11.3638  13.3833

          k = 0.1237 0.6307 0.6348 (  2073 PWs)   bands (ev):

   -11.8330 -11.0222 -10.0979  -7.8048  -5.9128  -3.3401  -1.5786  -1.0682
    -0.6528  -0.1029   0.1065   0.3022   0.7738   3.2814   5.3672   6.4007
     7.4763   8.1363  11.2430  13.1750

          k = 0.1810 0.6496 1.2548 (  2077 PWs)   bands (ev):

    -9.7689  -8.9524  -8.3843  -6.7628  -6.2878  -4.5222  -4.2803  -3.6580
    -2.4028  -1.2767  -0.8557   1.8455   2.4980   4.1102   4.3071   5.0081
     6.1780   7.0747   9.6186  11.1854

          k =-0.0485 0.5742-1.2252 (  2072 PWs)   bands (ev):

    -9.6980  -9.2934  -7.7450  -7.3488  -5.9791  -4.7886  -4.4646  -2.8710
    -2.6551  -1.3206  -1.0229   1.7481   2.8383   4.0888   4.1998   5.3570
     5.4575   7.4681   9.3005  11.5737

          k = 0.0089 0.5930-0.6052 (  2067 PWs)   bands (ev):

   -11.8003 -11.2019  -9.7844  -8.2204  -5.2206  -4.0307  -1.5675  -0.6173
    -0.5374  -0.3943   0.2011   0.5194   0.6249   3.3156   4.6695   6.5844
     7.8746   8.3156  10.3466  13.8124

          k =-0.5112-0.0458-0.0465 (  2066 PWs)   bands (ev):

   -12.5999 -12.1549 -10.2319  -8.6925  -5.5725  -4.3513  -0.3805   0.0956
     0.5483   0.9319   0.9358   1.3334   2.0093   2.5787   3.0992   7.7800
     9.2696   9.9860  10.4135  12.3679

          k =-0.4538-0.0269 0.5735 (  2077 PWs)   bands (ev):

   -11.9098 -11.3961  -9.6248  -8.0315  -5.2682  -3.8872  -1.6391  -0.7024
    -0.5304   0.2198   0.5427   0.8787   1.2923   2.1190   3.7187   6.6154
     7.9827   7.9992   9.9237  12.9142

          k =-0.3965-0.0081 1.1936 (  2073 PWs)   bands (ev):

    -9.8790  -9.2697  -7.9527  -7.0872  -6.0305  -4.6958  -4.3228  -3.2274
    -2.3775  -1.3403  -0.9170   2.9337   3.0702   3.9630   4.2505   5.0685
     5.2763   6.9709   9.1645  10.9986

          k =-0.4450 0.5661-0.0317 (  2080 PWs)   bands (ev):

   -12.4983 -11.8439 -10.7322  -8.1462  -6.8090  -3.1767  -1.4433  -1.2917
     0.6409   0.9912   1.3179   1.4903   1.8844   2.6936   5.2385   7.5044
     8.8747  10.8849  11.2841  12.6472

          k =-0.3876 0.5849 0.5883 (  2072 PWs)   bands (ev):

   -11.7560 -11.2197  -9.9126  -7.8930  -5.8919  -3.3641  -1.6004  -1.0079
    -0.6724  -0.5825   0.2426   0.7393   1.4612   2.1620   5.4158   6.4324
     8.0919   8.2603  10.4330  13.6377

          k =-0.3302 0.6038 1.2083 (  2070 PWs)   bands (ev):

    -9.6684  -9.2754  -7.8906  -7.2332  -6.0037  -4.7753  -4.4454  -3.1274
    -2.4460  -1.3716  -0.9464   1.6060   2.9213   4.0607   4.1985   5.3076
     5.7072   7.2756   9.5348  11.6275

          k =-0.5597 0.5284-1.2717 (  2070 PWs)   bands (ev):

    -9.7942  -8.9335  -8.4314  -6.6035  -6.3642  -4.4000  -4.3525  -3.7537
    -2.4155  -1.2366  -0.8513   1.8847   2.6994   3.9032   4.3470   4.9400
     6.2046   6.7758   9.9791  11.0731

          k =-0.5023 0.5472-0.6517 (  2081 PWs)   bands (ev):

   -11.8248 -11.0390 -10.1816  -7.2275  -6.6418  -2.6687  -1.7799  -1.3986
    -0.6815  -0.4875   0.3332   0.8987   1.0614   2.3746   5.9229   6.2412
     7.1968   8.2790  11.4939  12.8866

     the Fermi energy is     6.3751 ev

!    total energy              =     -90.76879572 Ry
     Harris-Foulkes estimate   =     -90.76879572 Ry
     estimated scf accuracy    <          4.7E-10 Ry

     The total energy is the sum of the following terms:

     one-electron contribution =     -19.90560159 Ry
     hartree contribution      =      25.20429453 Ry
     xc contribution           =     -27.68818502 Ry
     ewald contribution        =     -68.37769851 Ry
     smearing contrib. (-TS)   =      -0.00160512 Ry

     convergence has been achieved in  10 iterations

     Forces acting on atoms (cartesian axes, Ry/au):

     atom    1 type  1   force =    -0.00066964   -0.00450945   -0.00017314
     atom    2 type  1   force =     0.00953481   -0.00741329    0.00086948
     atom    3 type  1   force =    -0.00965199    0.00709221   -0.00114946
     atom    4 type  1   force =     0.00048428    0.00452132    0.00023709
     atom    5 type  1   force =     0.00169007   -0.00585970   -0.00056823
     atom    6 type  1   force =    -0.00157342    0.00584947    0.00062966
     atom    7 type  1   force =    -0.00981876    0.00590101   -0.00080500
     atom    8 type  1   force =     0.01000465   -0.00558157    0.00095960

     Total force =     0.025915     Total SCF correction =     0.000030


     Computing stress (Cartesian axis) and pressure

          total   stress  (Ry/bohr**3)                   (kbar)     P=       10.58
   0.00005131   0.00008697  -0.00001112            7.55       12.79       -1.64
   0.00008697   0.00017847   0.00002628           12.79       26.25        3.87
  -0.00001112   0.00002628  -0.00001405           -1.64        3.87       -2.07


     number of scf cycles    =   4
     number of bfgs steps    =   3

     enthalpy old            =     -90.7674040343 Ry
     enthalpy new            =     -90.7687622120 Ry

     CASE: enthalpy_new < enthalpy_old

     new trust radius        =       0.0813915992 bohr
     new conv_thr            =       0.0000000010 Ry

     new unit-cell volume =    503.97197 a.u.^3 (    74.68094 Ang^3 )
     density =      2.13457 g/cm^3

CELL_PARAMETERS (bohr)
  14.096758991  -1.392846643  -1.257298612
  -0.613726037   7.887954493  -0.163156652
  -0.412468211  -0.064563358   4.607175567

ATOMIC_POSITIONS (crystal)
C             0.3407730436        0.4560381712        0.7731510566
C             0.7203217938        1.0741521480        0.4625558868
C             0.8027453819        0.9806361846        1.0037629395
C             0.1822191707        0.5983536252        0.6927975328
C             0.4232078362        0.3776856725        0.3144015094
C             0.0997682815        0.6767516703        0.1515568836
C             0.5747491956        0.2299831933        0.3903488519
C             0.9481732969        0.8244383349        1.0759103394



     Writing output data file ./pp.save/
     NEW-OLD atomic charge density approx. for the potential
     extrapolated charge   32.70306, renormalised to   32.00000

     total cpu time spent up to now is       50.0 secs

     Self-consistent Calculation

     iteration #  1     ecut=    40.00 Ry     beta= 0.50
     Davidson diagonalization with overlap
     ethr =  1.00E-06,  avg # of iterations =  8.6

     total cpu time spent up to now is       55.3 secs

     total energy              =     -90.75952954 Ry
     Harris-Foulkes estimate   =     -90.40295344 Ry
     estimated scf accuracy    <       0.00584691 Ry

     iteration #  2     ecut=    40.00 Ry     beta= 0.50
     Davidson diagonalization with overlap
     ethr =  1.83E-05,  avg # of iterations =  4.8

     total cpu time spent up to now is       58.6 secs

     total energy              =     -90.77077181 Ry
     Harris-Foulkes estimate   =     -90.77387867 Ry
     estimated scf accuracy    <       0.00975205 Ry

     iteration #  3     ecut=    40.00 Ry     beta= 0.50
     Davidson diagonalization with overlap
     ethr =  1.83E-05,  avg # of iterations =  2.4

     total cpu time spent up to now is       60.6 secs

     total energy              =     -90.77139583 Ry
     Harris-Foulkes estimate   =     -90.77184182 Ry
     estimated scf accuracy    <       0.00235215 Ry

     iteration #  4     ecut=    40.00 Ry     beta= 0.50
     Davidson diagonalization with overlap
     ethr =  7.35E-06,  avg # of iterations =  1.1

     total cpu time spent up to now is       62.0 secs

     total energy              =     -90.77101303 Ry
     Harris-Foulkes estimate   =     -90.77150638 Ry
     estimated scf accuracy    <       0.00144794 Ry

     iteration #  5     ecut=    40.00 Ry     beta= 0.50
     Davidson diagonalization with overlap
     ethr =  4.52E-06,  avg # of iterations =  1.7

     total cpu time spent up to now is       63.7 secs

     total energy              =     -90.77081611 Ry
     Harris-Foulkes estimate   =     -90.77107046 Ry
     estimated scf accuracy    <       0.00042331 Ry

     iteration #  6     ecut=    40.00 Ry     beta= 0.50
     Davidson diagonalization with overlap
     ethr =  1.32E-06,  avg # of iterations =  2.9

     total cpu time spent up to now is       66.2 secs

     total energy              =     -90.77091056 Ry
     Harris-Foulkes estimate   =     -90.77091383 Ry
     estimated scf accuracy    <       0.00001298 Ry

     iteration #  7     ecut=    40.00 Ry     beta= 0.50
     Davidson diagonalization with overlap
     ethr =  4.06E-08,  avg # of iterations =  2.5

     total cpu time spent up to now is       68.4 secs

     total energy              =     -90.77091057 Ry
     Harris-Foulkes estimate   =     -90.77091280 Ry
     estimated scf accuracy    <       0.00000600 Ry

     iteration #  8     ecut=    40.00 Ry     beta= 0.50
     Davidson diagonalization with overlap
     ethr =  1.87E-08,  avg # of iterations =  1.2

     total cpu time spent up to now is       70.0 secs

     total energy              =     -90.77091048 Ry
     Harris-Foulkes estimate   =     -90.77091106 Ry
     estimated scf accuracy    <       0.00000099 Ry

     iteration #  9     ecut=    40.00 Ry     beta= 0.50
     Davidson diagonalization with overlap
     ethr =  3.08E-09,  avg # of iterations =  2.7

     total cpu time spent up to now is       72.6 secs

     total energy              =     -90.77091077 Ry
     Harris-Foulkes estimate   =     -90.77091101 Ry
     estimated scf accuracy    <       0.00000054 Ry

     iteration # 10     ecut=    40.00 Ry     beta= 0.50
     Davidson diagonalization with overlap
     ethr =  1.70E-09,  avg # of iterations =  2.0

     total cpu time spent up to now is       74.7 secs

     total energy              =     -90.77091084 Ry
     Harris-Foulkes estimate   =     -90.77091085 Ry
     estimated scf accuracy    <       0.00000001 Ry

     iteration # 11     ecut=    40.00 Ry     beta= 0.50
     Davidson diagonalization with overlap
     ethr =  3.67E-11,  avg # of iterations =  3.0

     total cpu time spent up to now is       77.7 secs

     End of self-consistent calculation

          k = 0.0000 0.0000 0.0000 (  2083 PWs)   bands (ev):

   -12.9694 -11.8492 -11.1547  -7.7147  -7.4070  -3.0160  -1.9619  -0.1303
     0.3096   0.7041   0.7098   1.3073   1.5285   2.4774   4.3978   5.3429
     8.5550  10.7428  10.8916  12.5537

          k = 0.0568 0.0172 0.6183 (  2078 PWs)   bands (ev):

   -12.2422 -11.2180 -10.4019  -7.4233  -6.6228  -3.0209  -1.9784  -1.6519
    -0.9900   0.1131   0.6678   0.6717   1.0541   1.4618   4.6860   6.0311
     6.1628   8.0417  11.4632  11.9159

          k = 0.1137 0.0344 1.2366 (  2077 PWs)   bands (ev):

   -10.1390  -9.3673  -8.4251  -7.1167  -6.4226  -4.8327  -4.4612  -3.7179
    -2.5612  -1.5758  -1.0781   2.6408   2.9362   3.3523   4.0946   4.9550
     5.2332   6.6057   8.9382  10.6207

          k = 0.0607 0.6017 0.0139 (  2085 PWs)   bands (ev):

   -12.7481 -12.0482 -10.8265  -8.8675  -6.2166  -4.2309  -1.1950  -0.8584
    -0.7138   0.6993   0.9554   1.6749   2.3356   2.3387   4.3552   7.2133
     8.8090  10.2901  11.0656  13.0975

          k = 0.1175 0.6189 0.6322 (  2073 PWs)   bands (ev):

   -12.0547 -11.2592 -10.3167  -8.0262  -6.1441  -3.5585  -1.8377  -1.3041
    -0.9061  -0.3063  -0.0505   0.0371   0.5533   2.9489   5.1100   6.1562
     7.2353   7.8937  10.9650  12.9533

          k = 0.1744 0.6361 1.2504 (  2077 PWs)   bands (ev):

   -10.0099  -9.1938  -8.6312  -7.0108  -6.5335  -4.7612  -4.5159  -3.8765
    -2.6268  -1.5118  -1.0831   1.6355   2.3159   3.8283   4.1029   4.8034
     5.9022   6.7807   9.3582  10.9370

          k =-0.0530 0.5673-1.2227 (  2072 PWs)   bands (ev):

    -9.9258  -9.5474  -7.9828  -7.6080  -6.2226  -5.0364  -4.6901  -3.0902
    -2.8875  -1.5381  -1.2615   1.5666   2.5696   3.8812   3.9830   5.1486
     5.1829   7.1978   9.0356  11.3371

          k = 0.0038 0.5845-0.6044 (  2067 PWs)   bands (ev):

   -12.0140 -11.4454 -10.0001  -8.4485  -5.4547  -4.2477  -1.8282  -0.8604
    -0.7840  -0.5435  -0.0656   0.3047   0.3697   3.0502   4.3933   6.3398
     7.6453   8.1005  10.0492  13.4882

          k =-0.5089-0.0406-0.0461 (  2066 PWs)   bands (ev):

   -12.7982 -12.3582 -10.4721  -8.9333  -5.8052  -4.5737  -0.5996  -0.1804
     0.2498   0.6582   0.7425   1.1514   1.7378   2.2851   2.9287   7.6085
     8.9796   9.8116  10.1369  11.9395

          k =-0.4521-0.0233 0.5722 (  2077 PWs)   bands (ev):

   -12.1117 -11.6067  -9.8675  -8.2778  -5.5107  -4.1157  -1.8898  -0.9353
    -0.7832  -0.0446   0.3281   0.6071   0.9792   1.9350   3.5397   6.3633
     7.7466   7.8131   9.7183  12.4917

          k =-0.3953-0.0061 1.1904 (  2073 PWs)   bands (ev):

   -10.0958  -9.5009  -8.2091  -7.3331  -6.2865  -4.9394  -4.5593  -3.4590
    -2.6105  -1.5723  -1.1466   2.6684   2.7393   3.7260   4.0335   4.8716
     5.0653   6.7510   8.9239  10.7911

          k =-0.4483 0.5611-0.0323 (  2080 PWs)   bands (ev):

   -12.7236 -12.0505 -10.9698  -8.3598  -7.0172  -3.4089  -1.6042  -1.5021
     0.4411   0.7143   1.0706   1.2450   1.6035   2.4086   4.9554   7.2211
     8.5918  10.6124  11.1040  12.2566

          k =-0.3914 0.5784 0.5860 (  2072 PWs)   bands (ev):

   -11.9835 -11.4402 -10.1476  -8.1135  -6.1078  -3.6029  -1.8521  -1.2390
    -0.8438  -0.8251  -0.0198   0.5195   1.1798   1.9581   5.1102   6.1857
     7.8509   7.9815  10.2234  13.3338

          k =-0.3346 0.5956 1.2043 (  2070 PWs)   bands (ev):

    -9.9059  -9.5225  -8.1349  -7.4823  -6.2487  -5.0210  -4.6651  -3.3525
    -2.6763  -1.5959  -1.1809   1.4314   2.6576   3.8495   3.9826   5.0935
     5.4104   7.0252   9.2460  11.3707

          k =-0.5619 0.5267-1.2688 (  2070 PWs)   bands (ev):

   -10.0333  -9.1587  -8.6943  -6.8563  -6.6135  -4.6459  -4.5732  -3.9755
    -2.6411  -1.4717  -1.0770   1.6652   2.5146   3.6301   4.1486   4.7302
     5.9356   6.5043   9.6853  10.8316

          k =-0.5051 0.5439-0.6506 (  2081 PWs)   bands (ev):

   -12.0529 -11.2462 -10.4276  -7.4501  -6.8614  -2.9101  -2.0119  -1.6416
    -0.9456  -0.6714   0.0744   0.6831   0.8873   2.0561   5.6596   5.9999
     6.9216   8.0367  11.3021  12.5917

     the Fermi energy is     6.1352 ev

!    total energy              =     -90.77091085 Ry
     Harris-Foulkes estimate   =     -90.77091085 Ry
     estimated scf accuracy    <          9.3E-10 Ry

     The total energy is the sum of the following terms:

     one-electron contribution =     -22.81524719 Ry
     hartree contribution      =      26.37237379 Ry
     xc contribution           =     -27.67319405 Ry
     ewald contribution        =     -66.65323681 Ry
     smearing contrib. (-TS)   =      -0.00160658 Ry

     convergence has been achieved in  11 iterations

     Forces acting on atoms (cartesian axes, Ry/au):

     atom    1 type  1   force =    -0.00653271   -0.00042720   -0.00236106
     atom    2 type  1   force =     0.00881705   -0.01119181   -0.00072869
     atom    3 type  1   force =    -0.00887701    0.01102152    0.00070291
     atom    4 type  1   force =     0.00620108    0.00066776    0.00245726
     atom    5 type  1   force =    -0.00084838   -0.00070198    0.00123417
     atom    6 type  1   force =     0.00065837    0.00074928   -0.00117304
     atom    7 type  1   force =    -0.00751359    0.00361095   -0.00085687
     atom    8 type  1   force =     0.00809517   -0.00372853    0.00072532

     Total force =     0.025553     Total SCF correction =     0.000045


     Computing stress (Cartesian axis) and pressure

          total   stress  (Ry/bohr**3)                   (kbar)     P=        5.98
   0.00007399   0.00004278   0.00000558           10.88        6.29        0.82
   0.00004278   0.00016139   0.00001515            6.29       23.74        2.23
   0.00000558   0.00001515  -0.00011342            0.82        2.23      -16.68


     number of scf cycles    =   5
     number of bfgs steps    =   4

     enthalpy old            =     -90.7687622120 Ry
     enthalpy new            =     -90.7708765891 Ry

     CASE: enthalpy_new < enthalpy_old

     new trust radius        =       0.1209437772 bohr
     new conv_thr            =       0.0000000011 Ry

     new unit-cell volume =    519.85703 a.u.^3 (    77.03486 Ang^3 )
     density =      2.06935 g/cm^3

CELL_PARAMETERS (bohr)
  14.176554437  -1.261067113  -1.246985178
  -0.524329837   8.070468639  -0.149520529
  -0.411664254  -0.062635171   4.608793261

ATOMIC_POSITIONS (crystal)
C             0.3399411408        0.4535794502        0.7720833065
C             0.7207121406        1.0741580578        0.4625373912
C             0.8022244136        0.9804066707        1.0033403508
C             0.1830436392        0.6007280188        0.6939153531
C             0.4219473269        0.3744200515        0.3134730195
C             0.1010477624        0.6800839075        0.1525702125
C             0.5748558617        0.2294210824        0.3904658295
C             0.9481857148        0.8252417611        1.0760995369



     Writing output data file ./pp.save/
     NEW-OLD atomic charge density approx. for the potential
     extrapolated charge   32.97780, renormalised to   32.00000

     total cpu time spent up to now is       77.8 secs

     Self-consistent Calculation

     iteration #  1     ecut=    40.00 Ry     beta= 0.50
     Davidson diagonalization with overlap
     ethr =  1.00E-06,  avg # of iterations =  9.8

     total cpu time spent up to now is       85.3 secs

     total energy              =     -90.75006008 Ry
     Harris-Foulkes estimate   =     -90.15116116 Ry
     estimated scf accuracy    <       0.01112720 Ry

     iteration #  2     ecut=    40.00 Ry     beta= 0.50
     Davidson diagonalization with overlap
     ethr =  3.48E-05,  avg # of iterations =  4.8

     total cpu time spent up to now is       89.7 secs

     total energy              =     -90.77370132 Ry
     Harris-Foulkes estimate   =     -90.77853364 Ry
     estimated scf accuracy    <       0.01499983 Ry

     iteration #  3     ecut=    40.00 Ry     beta= 0.50
     Davidson diagonalization with overlap
     ethr =  3.48E-05,  avg # of iterations =  1.4

     total cpu time spent up to now is       91.6 secs

     total energy              =     -90.77424824 Ry
     Harris-Foulkes estimate   =     -90.77504629 Ry
     estimated scf accuracy    <       0.00441817 Ry

     iteration #  4     ecut=    40.00 Ry     beta= 0.50
     Davidson diagonalization with overlap
     ethr =  1.38E-05,  avg # of iterations =  1.0

     total cpu time spent up to now is       93.4 secs

     total energy              =     -90.77322506 Ry
     Harris-Foulkes estimate   =     -90.77444577 Ry
     estimated scf accuracy    <       0.00291582 Ry

     iteration #  5     ecut=    40.00 Ry     beta= 0.50
     Davidson diagonalization with overlap
     ethr =  9.11E-06,  avg # of iterations =  2.1

     total cpu time spent up to now is       95.8 secs

     total energy              =     -90.77313187 Ry
     Harris-Foulkes estimate   =     -90.77341373 Ry
     estimated scf accuracy    <       0.00045936 Ry

     iteration #  6     ecut=    40.00 Ry     beta= 0.50
     Davidson diagonalization with overlap
     ethr =  1.44E-06,  avg # of iterations =  3.6

     total cpu time spent up to now is       99.5 secs

     total energy              =     -90.77324955 Ry
     Harris-Foulkes estimate   =     -90.77325631 Ry
     estimated scf accuracy    <       0.00002465 Ry

     iteration #  7     ecut=    40.00 Ry     beta= 0.50
     Davidson diagonalization with overlap
     ethr =  7.70E-08,  avg # of iterations =  1.8

     total cpu time spent up to now is      101.8 secs

     total energy              =     -90.77324838 Ry
     Harris-Foulkes estimate   =     -90.77325166 Ry
     estimated scf accuracy    <       0.00000960 Ry

     iteration #  8     ecut=    40.00 Ry     beta= 0.50
     Davidson diagonalization with overlap
     ethr =  3.00E-08,  avg # of iterations =  1.4

     total cpu time spent up to now is      103.9 secs

     total energy              =     -90.77324807 Ry
     Harris-Foulkes estimate   =     -90.77324916 Ry
     estimated scf accuracy    <       0.00000187 Ry

     iteration #  9     ecut=    40.00 Ry     beta= 0.50
     Davidson diagonalization with overlap
     ethr =  5.84E-09,  avg # of iterations =  3.0

     total cpu time spent up to now is      107.3 secs

     total energy              =     -90.77324868 Ry
     Harris-Foulkes estimate   =     -90.77324915 Ry
     estimated scf accuracy    <       0.00000128 Ry

     iteration # 10     ecut=    40.00 Ry     beta= 0.50
     Davidson diagonalization with overlap
     ethr =  3.99E-09,  avg # of iterations =  1.6

     total cpu time spent up to now is      109.5 secs

     total energy              =     -90.77324874 Ry
     Harris-Foulkes estimate   =     -90.77324880 Ry
     estimated scf accuracy    <       0.00000012 Ry

     iteration # 11     ecut=    40.00 Ry     beta= 0.50
     Davidson diagonalization with overlap
     ethr =  3.89E-10,  avg # of iterations =  2.8

     total cpu time spent up to now is      112.9 secs

     total energy              =     -90.77324877 Ry
     Harris-Foulkes estimate   =     -90.77324877 Ry
     estimated scf accuracy    <          1.8E-09 Ry

     iteration # 12     ecut=    40.00 Ry     beta= 0.50
     Davidson diagonalization with overlap
     ethr =  5.67E-12,  avg # of iterations =  2.4

     total cpu time spent up to now is      116.1 secs

     End of self-consistent calculation

          k = 0.0000 0.0000 0.0000 (  2083 PWs)   bands (ev):

   -13.2533 -12.1818 -11.4592  -8.0541  -7.7319  -3.3271  -2.2729  -0.5122
    -0.0778   0.3915   0.3925   0.9964   1.1725   2.1366   4.1758   5.1127
     8.2342  10.3450  10.4014  12.1868

          k = 0.0557 0.0151 0.6179 (  2078 PWs)   bands (ev):

   -12.5285 -11.5446 -10.7133  -7.7573  -6.9480  -3.3338  -2.2962  -1.9595
    -1.3368  -0.2248   0.2685   0.3563   0.6856   1.1591   4.4577   5.7364
     5.8822   7.7002  11.1442  11.3687

          k = 0.1114 0.0301 1.2358 (  2077 PWs)   bands (ev):

   -10.4314  -9.6829  -8.7448  -7.4309  -6.7472  -5.1507  -4.8005  -4.0511
    -2.8847  -1.8865  -1.3958   2.2295   2.5776   3.0653   3.7652   4.6151
     4.9607   6.3025   8.6531  10.3062

          k = 0.0533 0.5869 0.0127 (  2085 PWs)   bands (ev):

   -13.0590 -12.3980 -11.1195  -9.1673  -6.5294  -4.5354  -1.4118  -1.1736
    -1.0176   0.3754   0.6349   1.3100   1.9075   2.0056   3.9912   6.8829
     8.4930   9.9606  10.6503  12.6273

          k = 0.1090 0.6020 0.6307 (  2073 PWs)   bands (ev):

   -12.3711 -11.6074 -10.6088  -8.3259  -6.4537  -3.8654  -2.1590  -1.6206
    -1.2584  -0.5895  -0.2997  -0.2649   0.2395   2.5009   4.7559   5.8371
     6.8945   7.5583  10.5763  12.6447

          k = 0.1647 0.6170 1.2486 (  2077 PWs)   bands (ev):

   -10.3323  -9.5354  -8.9273  -7.3309  -6.8423  -5.0802  -4.8339  -4.2084
    -2.9340  -1.8335  -1.3920   1.3714   2.0784   3.4720   3.7825   4.4819
     5.5285   6.4110   9.0259  10.5686

          k =-0.0581 0.5568-1.2231 (  2072 PWs)   bands (ev):

   -10.2368  -9.8829  -8.2970  -7.9228  -6.5402  -5.3500  -5.0195  -3.4067
    -3.2103  -1.8485  -1.5735   1.3420   2.2212   3.5829   3.6906   4.7993
     4.8257   6.8554   8.6909  10.9834

          k =-0.0024 0.5718-0.6052 (  2067 PWs)   bands (ev):

   -12.3224 -11.7918 -10.3010  -8.7501  -5.7640  -4.5582  -2.1545  -1.1782
    -1.1350  -0.7510  -0.3862  -0.0138   0.0210   2.6732   4.0326   6.0249
     7.3184   7.7712   9.6618  12.9482

          k =-0.5050-0.0337-0.0456 (  2066 PWs)   bands (ev):

   -13.0916 -12.6581 -10.8101  -9.2599  -6.1187  -4.9055  -0.8955  -0.5690
    -0.1751   0.3410   0.4178   0.9100   1.3670   1.9601   2.6973   7.3251
     8.6529   9.5526   9.8031  11.3615

          k =-0.4493-0.0186 0.5724 (  2077 PWs)   bands (ev):

   -12.4041 -11.9117 -10.2019  -8.6042  -5.8278  -4.4415  -2.2017  -1.2459
    -1.1352  -0.3720   0.0126   0.2271   0.5529   1.6849   3.3000   6.0348
     7.4075   7.5407   9.4245  11.9312

          k =-0.3936-0.0035 1.1903 (  2073 PWs)   bands (ev):

   -10.3881  -9.8151  -8.5298  -7.6510  -6.6105  -5.2584  -4.8927  -3.7934
    -2.9323  -1.8939  -1.4563   2.3110   2.3349   3.4260   3.7025   4.5936
     4.7306   6.4696   8.6101  10.4820

          k =-0.4517 0.5532-0.0328 (  2080 PWs)   bands (ev):

   -13.0507 -12.3625 -11.2921  -8.6590  -7.3103  -3.7350  -1.8370  -1.8072
     0.1171   0.3928   0.7444   0.9039   1.2367   2.0777   4.5611   6.8040
     8.2806  10.2738  10.8209  11.7115

          k =-0.3960 0.5683 0.5851 (  2072 PWs)   bands (ev):

   -12.3098 -11.7589 -10.4671  -8.4095  -6.4030  -3.9252  -2.1725  -1.5501
    -1.2041  -1.0437  -0.3400   0.2028   0.7847   1.6842   4.7039   5.8687
     7.5025   7.5865   9.9306  12.7585

          k =-0.3403 0.5834 1.2030 (  2070 PWs)   bands (ev):

   -10.2289  -9.8496  -8.4537  -7.7849  -6.5724  -5.3305  -4.9890  -3.6689
    -3.0049  -1.9015  -1.4982   1.2103   2.3267   3.5569   3.6604   4.7531
     5.0367   6.6923   8.8833  10.9772

          k =-0.5631 0.5231-1.2687 (  2070 PWs)   bands (ev):

   -10.3535  -9.4870  -9.0040  -7.1722  -6.9373  -4.9574  -4.8850  -4.3141
    -2.9504  -1.7891  -1.3879   1.3878   2.2877   3.2624   3.8298   4.4072
     5.5943   6.1458   9.3254  10.4560

          k =-0.5074 0.5382-0.6507 (  2081 PWs)   bands (ev):

   -12.3774 -11.5613 -10.7475  -7.7560  -7.1572  -3.2285  -2.3260  -1.9600
    -1.3073  -0.9221  -0.2537   0.3749   0.6358   1.6358   5.2922   5.6866
     6.5424   7.7014  11.0009  12.2095

     the Fermi energy is     5.8204 ev

!    total energy              =     -90.77324877 Ry
     Harris-Foulkes estimate   =     -90.77324877 Ry
     estimated scf accuracy    <          4.5E-10 Ry

     The total energy is the sum of the following terms:

     one-electron contribution =     -27.13807464 Ry
     hartree contribution      =      28.14332856 Ry
     xc contribution           =     -27.65251413 Ry
     ewald contribution        =     -64.12450630 Ry
     smearing contrib. (-TS)   =      -0.00148227 Ry

     convergence has been achieved in  12 iterations

     Forces acting on atoms (cartesian axes, Ry/au):

     atom    1 type  1   force =    -0.00618637    0.00135019    0.00009531
     atom    2 type  1   force =     0.00116647   -0.00951775   -0.00059320
     atom    3 type  1   force =    -0.00050228    0.00912150    0.00092976
     atom    4 type  1   force =     0.00574505   -0.00088270    0.00003474
     atom    5 type  1   force =     0.00430434   -0.00005766    0.00039415
     atom    6 type  1   force =    -0.00412629   -0.00024906   -0.00028879
     atom    7 type  1   force =    -0.01090490    0.00387586   -0.00134926
     atom    8 type  1   force =     0.01050398   -0.00364037    0.00077729

     Total force =     0.023373     Total SCF correction =     0.000043


     Computing stress (Cartesian axis) and pressure

          total   stress  (Ry/bohr**3)                   (kbar)     P=       -1.27
  -0.00001212   0.00006685  -0.00001060           -1.78        9.83       -1.56
   0.00006685   0.00008931   0.00001818            9.83       13.14        2.67
  -0.00001060   0.00001818  -0.00010315           -1.56        2.67      -15.17


     number of scf cycles    =   6
     number of bfgs steps    =   5

     enthalpy old            =     -90.7708765891 Ry
     enthalpy new            =     -90.7732134336 Ry

     CASE: enthalpy_new < enthalpy_old

     new trust radius        =       0.1788311469 bohr
     new conv_thr            =       0.0000000011 Ry

     new unit-cell volume =    541.56461 a.u.^3 (    80.25159 Ang^3 )
     density =      1.98640 g/cm^3

CELL_PARAMETERS (bohr)
  14.266252432  -1.046776753  -1.240386624
  -0.379777595   8.338590724  -0.125548787
  -0.413040701  -0.058547243   4.605348400

ATOMIC_POSITIONS (crystal)
C             0.3387255266        0.4500524821        0.7712677431
C             0.7205591168        1.0732356234        0.4621481030
C             0.8022830828        0.9809506107        1.0032550605
C             0.1842216894        0.6042111582        0.6948303066
C             0.4206315003        0.3700549956        0.3120684545
C             0.1024200675        0.6844741719        0.1541337972
C             0.5741780069        0.2287265215        0.3900705380
C             0.9489390098        0.8263334366        1.0767109971



     Writing output data file ./pp.save/
     NEW-OLD atomic charge density approx. for the potential
     extrapolated charge   33.28265, renormalised to   32.00000

     total cpu time spent up to now is      116.2 secs

     Self-consistent Calculation

     iteration #  1     ecut=    40.00 Ry     beta= 0.50
     Davidson diagonalization with overlap
     c_bands:  1 eigenvalues not converged
     ethr =  1.00E-06,  avg # of iterations = 10.3

     total cpu time spent up to now is      126.1 secs

     total energy              =     -90.73096515 Ry
     Harris-Foulkes estimate   =     -89.73084696 Ry
     estimated scf accuracy    <       0.02087893 Ry

     iteration #  2     ecut=    40.00 Ry     beta= 0.50
     Davidson diagonalization with overlap
     ethr =  6.52E-05,  avg # of iterations =  4.2

     total cpu time spent up to now is      131.1 secs

     total energy              =     -90.77652570 Ry
     Harris-Foulkes estimate   =     -90.78608603 Ry
     estimated scf accuracy    <       0.03007491 Ry

     iteration #  3     ecut=    40.00 Ry     beta= 0.50
     Davidson diagonalization with overlap
     ethr =  6.52E-05,  avg # of iterations =  1.4

     total cpu time spent up to now is      133.5 secs

     total energy              =     -90.77740565 Ry
     Harris-Foulkes estimate   =     -90.77892176 Ry
     estimated scf accuracy    <       0.00861603 Ry

     iteration #  4     ecut=    40.00 Ry     beta= 0.50
     Davidson diagonalization with overlap
     ethr =  2.69E-05,  avg # of iterations =  1.1

     total cpu time spent up to now is      135.7 secs

     total energy              =     -90.77524870 Ry
     Harris-Foulkes estimate   =     -90.77773644 Ry
     estimated scf accuracy    <       0.00596164 Ry

     iteration #  5     ecut=    40.00 Ry     beta= 0.50
     Davidson diagonalization with overlap
     ethr =  1.86E-05,  avg # of iterations =  2.0

     total cpu time spent up to now is      138.6 secs

     total energy              =     -90.77508940 Ry
     Harris-Foulkes estimate   =     -90.77564530 Ry
     estimated scf accuracy    <       0.00090541 Ry

     iteration #  6     ecut=    40.00 Ry     beta= 0.50
     Davidson diagonalization with overlap
     ethr =  2.83E-06,  avg # of iterations =  4.1

     total cpu time spent up to now is      143.2 secs

     total energy              =     -90.77531836 Ry
     Harris-Foulkes estimate   =     -90.77532936 Ry
     estimated scf accuracy    <       0.00005149 Ry

     iteration #  7     ecut=    40.00 Ry     beta= 0.50
     Davidson diagonalization with overlap
     ethr =  1.61E-07,  avg # of iterations =  1.7

     total cpu time spent up to now is      146.0 secs

     total energy              =     -90.77531253 Ry
     Harris-Foulkes estimate   =     -90.77532269 Ry
     estimated scf accuracy    <       0.00002114 Ry

     iteration #  8     ecut=    40.00 Ry     beta= 0.50
     Davidson diagonalization with overlap
     ethr =  6.61E-08,  avg # of iterations =  2.1

     total cpu time spent up to now is      149.3 secs

     total energy              =     -90.77531669 Ry
     Harris-Foulkes estimate   =     -90.77531678 Ry
     estimated scf accuracy    <       0.00000044 Ry

     iteration #  9     ecut=    40.00 Ry     beta= 0.50
     Davidson diagonalization with overlap
     ethr =  1.39E-09,  avg # of iterations =  2.9

     total cpu time spent up to now is      153.4 secs

     total energy              =     -90.77531686 Ry
     Harris-Foulkes estimate   =     -90.77531683 Ry
     estimated scf accuracy    <       0.00000014 Ry

     iteration # 10     ecut=    40.00 Ry     beta= 0.50
     Davidson diagonalization with overlap
     ethr =  4.51E-10,  avg # of iterations =  1.9

     total cpu time spent up to now is      156.3 secs

     total energy              =     -90.77531680 Ry
     Harris-Foulkes estimate   =     -90.77531688 Ry
     estimated scf accuracy    <       0.00000018 Ry

     iteration # 11     ecut=    40.00 Ry     beta= 0.50
     Davidson diagonalization with overlap
     ethr =  4.51E-10,  avg # of iterations =  2.0

     total cpu time spent up to now is      159.5 secs

     total energy              =     -90.77531682 Ry
     Harris-Foulkes estimate   =     -90.77531682 Ry
     estimated scf accuracy    <          3.8E-09 Ry

     iteration # 12     ecut=    40.00 Ry     beta= 0.50
     Davidson diagonalization with overlap
     ethr =  1.20E-11,  avg # of iterations =  3.1

     total cpu time spent up to now is      163.9 secs

     End of self-consistent calculation

          k = 0.0000 0.0000 0.0000 (  2083 PWs)   bands (ev):

   -13.6581 -12.6148 -11.9109  -8.4874  -8.2073  -3.7665  -2.6744  -1.0736
    -0.5317  -0.0477  -0.0195   0.5861   0.7328   1.7095   3.9139   4.7911
     7.8218   9.6449   9.9815  11.7677

          k = 0.0546 0.0118 0.6182 (  2078 PWs)   bands (ev):

   -12.9343 -11.9748 -11.1653  -8.2065  -7.3983  -3.7784  -2.7011  -2.3706
    -1.7735  -0.6571  -0.3020  -0.0749   0.2353   0.7525   4.1681   5.3337
     5.5419   7.2753  10.6642  10.7525

          k = 0.1092 0.0236 1.2365 (  2077 PWs)   bands (ev):

   -10.8401 -10.1082  -9.1862  -7.8749  -7.1573  -5.5961  -5.2536  -4.4879
    -3.3142  -2.3173  -1.8315   1.6804   2.0900   2.6979   3.3456   4.1883
     4.5814   5.9280   8.2870   9.9528

          k = 0.0425 0.5665 0.0110 (  2085 PWs)   bands (ev):

   -13.4948 -12.8626 -11.5426  -9.5847  -6.9657  -4.9537  -1.7384  -1.5954
    -1.4145  -0.0447   0.2065   0.8686   1.3480   1.5827   3.5168   6.4708
     8.0974   9.5378  10.1386  11.7269

          k = 0.0971 0.5783 0.6293 (  2073 PWs)   bands (ev):

   -12.8121 -12.0641 -11.0353  -8.7348  -6.8925  -4.2829  -2.5846  -2.0500
    -1.6937  -0.9850  -0.7280  -0.5598  -0.1877   1.9102   4.3020   5.4356
     6.4560   7.1330  10.1161  12.2646

          k = 0.1518 0.5901 1.2475 (  2077 PWs)   bands (ev):

   -10.7768  -9.9749  -9.3615  -7.7555  -7.2587  -5.5172  -5.2696  -4.6402
    -3.3455  -2.2758  -1.8199   1.0009   1.7552   2.9809   3.3769   4.0720
     5.0631   5.9452   8.6161  10.1354

          k =-0.0667 0.5430-1.2255 (  2072 PWs)   bands (ev):

   -10.6700 -10.3278  -8.7394  -8.3461  -6.9560  -5.7858  -5.4634  -3.8261
    -3.6357  -2.2812  -2.0027   1.0215   1.7505   3.1820   3.3067   4.3220
     4.4118   6.4296   8.2620  10.5623

          k =-0.0121 0.5548-0.6072 (  2067 PWs)   bands (ev):

   -12.7543 -12.2529 -10.7281  -9.1704  -6.1921  -4.9860  -2.5805  -1.6087
    -1.5678  -1.0487  -0.8088  -0.4499  -0.4348   2.1721   3.5648   5.6270
     6.9035   7.3710   9.1775  12.1583

          k =-0.5005-0.0235-0.0452 (  2066 PWs)   bands (ev):

   -13.5076 -13.0701 -11.2795  -9.7113  -6.5555  -5.3495  -1.3093  -1.0909
    -0.7377  -0.0719  -0.0182   0.6018   0.9237   1.5378   2.3938   6.9746
     8.2528   9.2118   9.3682  10.6170

          k =-0.4459-0.0117 0.5731 (  2077 PWs)   bands (ev):

   -12.8179 -12.3267 -10.6686  -9.0501  -6.2714  -4.8767  -2.6140  -1.6724
    -1.5688  -0.7978  -0.4166  -0.2908  -0.0017   1.3501   2.9902   5.6251
     6.9744   7.1920   9.0579  11.2077

          k =-0.3913 0.0001 1.1913 (  2073 PWs)   bands (ev):

   -10.7992 -10.2338  -8.9867  -8.0696  -7.0403  -5.6969  -5.3441  -4.2336
    -3.3541  -2.3400  -1.8839   1.7549   1.8755   3.0160   3.2794   4.2350
     4.3205   6.0937   8.2204  10.1319

          k =-0.4580 0.5431-0.0342 (  2080 PWs)   bands (ev):

   -13.5060 -12.7806 -11.7512  -9.0722  -7.7259  -4.1831  -2.2313  -2.1479
    -0.3329  -0.0240   0.2851   0.4848   0.7887   1.6585   4.0660   6.2668
     7.8821   9.8516  10.4611  11.0356

          k =-0.4034 0.5549 0.5841 (  2072 PWs)   bands (ev):

   -12.7633 -12.1862 -10.9164  -8.8240  -6.8119  -4.3743  -2.5881  -1.9677
    -1.6540  -1.3480  -0.7595  -0.2271   0.2649   1.3089   4.1813   5.4641
     7.0338   7.1257   9.5675  12.0028

          k =-0.3488 0.5667 1.2023 (  2070 PWs)   bands (ev):

   -10.6754 -10.2861  -8.8882  -8.2123  -6.9879  -5.7654  -5.4248  -4.0884
    -3.4372  -2.3293  -1.9329   0.9021   1.8608   3.1765   3.2470   4.3262
     4.5416   6.2926   8.4191  10.5244

          k =-0.5672 0.5195-1.2707 (  2070 PWs)   bands (ev):

   -10.7952  -9.9108  -9.4519  -7.6170  -7.3469  -5.3913  -5.3134  -4.7488
    -3.3675  -2.2243  -1.8183   1.0051   1.9554   2.7828   3.4280   3.9938
     5.1425   5.7169   8.8686  10.0260

          k =-0.5126 0.5313-0.6524 (  2081 PWs)   bands (ev):

   -12.8279 -11.9770 -11.2084  -8.1604  -7.5895  -3.6711  -2.7416  -2.3789
    -1.7569  -1.2719  -0.6740  -0.0535   0.2947   1.0823   4.8440   5.2883
     6.0339   7.2795  10.6562  11.7394

     the Fermi energy is     5.4189 ev

!    total energy              =     -90.77531682 Ry
     Harris-Foulkes estimate   =     -90.77531682 Ry
     estimated scf accuracy    <          6.2E-10 Ry

     The total energy is the sum of the following terms:

     one-electron contribution =     -33.81197106 Ry
     hartree contribution      =      30.97966522 Ry
     xc contribution           =     -27.65981452 Ry
     ewald contribution        =     -60.28198864 Ry
     smearing contrib. (-TS)   =      -0.00120782 Ry

     convergence has been achieved in  12 iterations

[...]

   -11.0656 -10.3042  -9.6331  -8.0814  -7.5420  -5.8112  -5.5457  -4.9324
    -3.6315  -2.5752  -2.1145   0.6010   1.7050   2.6955   3.0955   3.7619
     4.8071   5.6710   8.1934   9.7295

          k =-0.1056 0.4611-1.2163 (  2072 PWs)   bands (ev):

   -10.9934 -10.6302  -9.0089  -8.6239  -7.2644  -6.0752  -5.7490  -4.1129
    -3.9348  -2.6008  -2.2848   0.8489   1.6121   2.8872   2.9261   3.8427
     4.0912   6.2182   8.0080  10.0869

          k =-0.0287 0.4934-0.5872 (  2067 PWs)   bands (ev):

   -13.0753 -12.5590 -10.9983  -9.4573  -6.4902  -5.2667  -2.8801  -1.8990
    -1.8718  -1.2641  -1.0861  -0.7615  -0.5853   1.7259   3.2067   5.3391
     6.6149   6.9718   8.8142  11.1105

          k =-0.5202-0.0205-0.0670 (  2066 PWs)   bands (ev):

   -13.8046 -13.3332 -11.5756 -10.0162  -6.8786  -5.6765  -1.5961  -1.5003
    -1.1962  -0.3561  -0.3175   0.3131   0.6358   1.2677   2.1307   6.9275
     7.9625   9.0648   9.2173  10.4309

          k =-0.4433 0.0118 0.5621 (  2077 PWs)   bands (ev):

   -13.1150 -12.5872 -10.9635  -9.3606  -6.5837  -5.2020  -2.8997  -1.9617
    -1.8565  -1.0870  -0.7339  -0.7208  -0.4414   1.0959   2.7638   5.3127
     6.6664   7.0745   8.9565  10.6498

          k =-0.3663 0.0441 1.1911 (  2073 PWs)   bands (ev):

   -11.0915 -10.4937  -9.2711  -8.3831  -7.3214  -5.9947  -5.6496  -4.5309
    -3.6670  -2.6646  -2.1716   1.2902   1.4556   2.7561   2.9637   3.9777
     4.0586   5.7199   8.0724   9.9841

          k =-0.4720 0.5052-0.0252 (  2080 PWs)   bands (ev):

   -13.8214 -13.0745 -12.0557  -9.3429  -8.0169  -4.4869  -2.5262  -2.3964
    -0.5731  -0.3199   0.1062   0.1543   0.5002   1.3924   3.5166   5.9194
     7.6063   9.5549  10.2697  10.3355

          k =-0.3951 0.5375 0.6038 (  2072 PWs)   bands (ev):

   -13.0750 -12.4718 -11.2311  -9.1038  -7.1010  -4.6625  -2.9029  -2.2609
    -1.9483  -1.6258  -1.0186  -0.5471  -0.0743   1.2666   3.7718   5.1961
     6.6152   6.7950   9.2691  11.5250

          k =-0.3182 0.5698 1.2329 (  2070 PWs)   bands (ev):

   -10.9857 -10.5622  -9.2125  -8.5034  -7.2882  -6.0358  -5.7275  -4.3714
    -3.7292  -2.6143  -2.2397   0.6596   1.4533   2.9344   3.1717   4.0309
     4.3037   5.8982   8.0030  10.2600

          k =-0.6258 0.4405-1.2832 (  2070 PWs)   bands (ev):

   -11.1224 -10.2075  -9.7244  -7.9174  -7.6231  -5.6834  -5.6135  -5.0327
    -3.6695  -2.5087  -2.1257   0.9300   1.6820   2.3998   3.1197   3.7086
     4.7511   5.3359   8.6954   9.7253

          k =-0.5489 0.4728-0.6542 (  2081 PWs)   bands (ev):

   -13.1507 -12.2737 -11.4965  -8.4273  -7.8826  -3.9746  -3.0441  -2.6727
    -2.0489  -1.4333  -0.9546  -0.3651   0.0667   0.7558   4.2500   5.0012
     5.7433   6.9853  10.4869  11.3782

     the Fermi energy is     5.1373 ev

!    total energy              =     -90.77765086 Ry
     Harris-Foulkes estimate   =     -90.77765086 Ry
     estimated scf accuracy    <          3.0E-11 Ry

     The total energy is the sum of the following terms:

     one-electron contribution =     -38.76062839 Ry
     hartree contribution      =      33.10043727 Ry
     xc contribution           =     -27.65307178 Ry
     ewald contribution        =     -57.46341761 Ry
     smearing contrib. (-TS)   =      -0.00097035 Ry

     convergence has been achieved in  11 iterations

     Forces acting on atoms (cartesian axes, Ry/au):

     atom    1 type  1   force =    -0.00035893    0.00042466    0.00175222
     atom    2 type  1   force =    -0.00021325    0.00061193    0.00146460
     atom    3 type  1   force =     0.00019661   -0.00036872    0.00169991
     atom    4 type  1   force =     0.00077132   -0.00018962   -0.00227599
     atom    5 type  1   force =    -0.00058897    0.00022008    0.00188930
     atom    6 type  1   force =     0.00055462   -0.00026250   -0.00279553
     atom    7 type  1   force =    -0.00003386    0.00040843   -0.00030892
     atom    8 type  1   force =    -0.00032753   -0.00084426   -0.00142558

     Total force =     0.005486     Total SCF correction =     0.000012


     Computing stress (Cartesian axis) and pressure

          total   stress  (Ry/bohr**3)                   (kbar)     P=        0.30
   0.00000386   0.00000204  -0.00000686            0.57        0.30       -1.01
   0.00000204  -0.00000016  -0.00000187            0.30       -0.02       -0.27
  -0.00000686  -0.00000187   0.00000240           -1.01       -0.27        0.35


     number of scf cycles    =  29
     number of bfgs steps    =  28

     enthalpy old            =     -90.7775598684 Ry
     enthalpy new            =     -90.7776129215 Ry

     CASE: enthalpy_new < enthalpy_old

     new trust radius        =       0.0224280503 bohr
     new conv_thr            =            1.0E-10 Ry

     new unit-cell volume =    556.59890 a.u.^3 (    82.47945 Ang^3 )
     density =      1.93275 g/cm^3

CELL_PARAMETERS (bohr)
  13.798280319  -1.155379368  -1.666863366
  -0.307474610   9.027430628  -0.450358468
  -0.590661173  -0.329777690   4.573083685

ATOMIC_POSITIONS (crystal)
C             0.3372901834        0.4485360509        0.7692328022
C             0.7186271155        1.0688615342        0.4581498235
C             0.8043568155        0.9856581878        1.0033840282
C             0.1856576587        0.6058920580        0.6985440804
C             0.4180642584        0.3658114448        0.3098289760
C             0.1049010257        0.6886814116        0.1579807569
C             0.5679222357        0.2146199285        0.3849889556
C             0.9551387071        0.8399783842        1.0823755773



     Writing output data file ./pp.save/
     NEW-OLD atomic charge density approx. for the potential
     extrapolated charge   31.91414, renormalised to   32.00000

     total cpu time spent up to now is     2249.9 secs

     Self-consistent Calculation

     iteration #  1     ecut=    40.00 Ry     beta= 0.50
     Davidson diagonalization with overlap
     ethr =  1.00E-06,  avg # of iterations =  4.8

     total cpu time spent up to now is     2278.2 secs

     total energy              =     -90.77747834 Ry
     Harris-Foulkes estimate   =     -90.85765747 Ry
     estimated scf accuracy    <       0.00016387 Ry

     iteration #  2     ecut=    40.00 Ry     beta= 0.50
     Davidson diagonalization with overlap
     ethr =  5.12E-07,  avg # of iterations =  3.2

     total cpu time spent up to now is     2297.7 secs

     total energy              =     -90.77768711 Ry
     Harris-Foulkes estimate   =     -90.77776514 Ry
     estimated scf accuracy    <       0.00023237 Ry

     iteration #  3     ecut=    40.00 Ry     beta= 0.50
     Davidson diagonalization with overlap
     ethr =  5.12E-07,  avg # of iterations =  2.0

     total cpu time spent up to now is     2311.4 secs

     total energy              =     -90.77770663 Ry
     Harris-Foulkes estimate   =     -90.77771585 Ry
     estimated scf accuracy    <       0.00003635 Ry

     iteration #  4     ecut=    40.00 Ry     beta= 0.50
     Davidson diagonalization with overlap
     ethr =  1.14E-07,  avg # of iterations =  1.1

     total cpu time spent up to now is     2322.0 secs

     total energy              =     -90.77770086 Ry
     Harris-Foulkes estimate   =     -90.77770916 Ry
     estimated scf accuracy    <       0.00001983 Ry

     iteration #  5     ecut=    40.00 Ry     beta= 0.50
     Davidson diagonalization with overlap
     ethr =  6.20E-08,  avg # of iterations =  2.0

     total cpu time spent up to now is     2335.6 secs

     total energy              =     -90.77770260 Ry
     Harris-Foulkes estimate   =     -90.77770313 Ry
     estimated scf accuracy    <       0.00000129 Ry

     iteration #  6     ecut=    40.00 Ry     beta= 0.50
     Davidson diagonalization with overlap
     ethr =  4.04E-09,  avg # of iterations =  2.9

     total cpu time spent up to now is     2353.7 secs

     total energy              =     -90.77770301 Ry
     Harris-Foulkes estimate   =     -90.77770318 Ry
     estimated scf accuracy    <       0.00000074 Ry

     iteration #  7     ecut=    40.00 Ry     beta= 0.50
     Davidson diagonalization with overlap
     ethr =  2.32E-09,  avg # of iterations =  1.1

     total cpu time spent up to now is     2364.6 secs

     total energy              =     -90.77770301 Ry
     Harris-Foulkes estimate   =     -90.77770309 Ry
     estimated scf accuracy    <       0.00000015 Ry

     iteration #  8     ecut=    40.00 Ry     beta= 0.50
     Davidson diagonalization with overlap
     ethr =  4.84E-10,  avg # of iterations =  2.1

     total cpu time spent up to now is     2380.6 secs

     total energy              =     -90.77770304 Ry
     Harris-Foulkes estimate   =     -90.77770305 Ry
     estimated scf accuracy    <       0.00000002 Ry

     iteration #  9     ecut=    40.00 Ry     beta= 0.50
     Davidson diagonalization with overlap
     ethr =  4.87E-11,  avg # of iterations =  2.1

     total cpu time spent up to now is     2394.7 secs

     total energy              =     -90.77770304 Ry
     Harris-Foulkes estimate   =     -90.77770304 Ry
     estimated scf accuracy    <          2.8E-09 Ry

     iteration # 10     ecut=    40.00 Ry     beta= 0.50
     Davidson diagonalization with overlap
     ethr =  8.72E-12,  avg # of iterations =  2.1

     total cpu time spent up to now is     2409.2 secs

     total energy              =     -90.77770304 Ry
     Harris-Foulkes estimate   =     -90.77770304 Ry
     estimated scf accuracy    <          2.4E-10 Ry

     iteration # 11     ecut=    40.00 Ry     beta= 0.50
     Davidson diagonalization with overlap
     ethr =  7.56E-13,  avg # of iterations =  2.8

     total cpu time spent up to now is     2427.3 secs

     End of self-consistent calculation

          k = 0.0000 0.0000 0.0000 (  2083 PWs)   bands (ev):

   -13.9242 -12.8706 -12.1554  -8.7762  -8.5165  -4.0352  -2.9694  -1.4477
    -0.9412  -0.3959  -0.2907   0.2886   0.4961   1.4536   3.8787   4.6941
     7.5491   9.2326   9.7166  11.6553

          k = 0.0790 0.0341 0.6302 (  2078 PWs)   bands (ev):

   -13.1966 -12.2346 -11.4113  -8.4843  -7.7131  -4.0459  -2.9927  -2.6378
    -2.0192  -0.9173  -0.7144  -0.3566  -0.1186   0.3874   4.0117   5.0587
     5.5359   6.9989  10.3967  10.5856

          k = 0.1580 0.0683 1.2604 (  2077 PWs)   bands (ev):

   -11.0930 -10.3715  -9.4397  -8.1232  -7.4508  -5.8611  -5.5286  -4.7686
    -3.6009  -2.5831  -2.1214   1.1852   1.9163   2.2750   3.0477   3.8945
     4.2838   5.8138   8.1349   9.6541

          k = 0.0493 0.5253 0.0442 (  2085 PWs)   bands (ev):

   -13.7857 -13.1430 -11.7902  -9.8616  -7.2296  -5.1990  -1.9525  -1.8873
    -1.5873  -0.3253  -0.0854   0.6209   0.9668   1.3355   3.3443   6.0595
     7.8447   9.2740   9.5895  10.9745

          k = 0.1283 0.5594 0.6744 (  2073 PWs)   bands (ev):

   -13.0890 -12.3545 -11.2861  -9.0164  -7.1524  -4.5313  -2.8749  -2.3292
    -1.9468  -1.3245  -0.9780  -0.6419  -0.4736   1.5757   4.1863   5.1840
     6.0893   6.8519   9.5803  12.0728

          k = 0.2073 0.5935 1.3046 (  2077 PWs)   bands (ev):

   -11.0417 -10.2760  -9.6093  -8.0594  -7.5150  -5.7841  -5.5208  -4.9073
    -3.6014  -2.5425  -2.0958   0.6114   1.7461   2.7262   3.1226   3.7880
     4.8357   5.6985   8.2106   9.7454

          k =-0.1086 0.4570-1.2161 (  2072 PWs)   bands (ev):

   -10.9745 -10.6003  -8.9816  -8.5971  -7.2419  -6.0506  -5.7200  -4.0932
    -3.9006  -2.5752  -2.2599   0.8748   1.6537   2.9120   2.9391   3.8550
     4.1184   6.2510   8.0431  10.0995

          k =-0.0297 0.4911-0.5859 (  2067 PWs)   bands (ev):

   -13.0557 -12.5281 -10.9713  -9.4318  -6.4642  -5.2397  -2.8608  -1.8652
    -1.8470  -1.2458  -1.0627  -0.7348  -0.5443   1.7452   3.2303   5.3647
     6.6425   6.9936   8.8420  11.1261

          k =-0.5218-0.0212-0.0689 (  2066 PWs)   bands (ev):

   -13.7844 -13.3031 -11.5480  -9.9889  -6.8544  -5.6502  -1.5715  -1.4807
    -1.1627  -0.3374  -0.2896   0.3327   0.6722   1.2889   2.1472   6.9706
     7.9881   9.0899   9.2570  10.4780

          k =-0.4428 0.0129 0.5613 (  2077 PWs)   bands (ev):

   -13.0949 -12.5563 -10.9367  -9.3337  -6.5595  -5.1755  -2.8801  -1.9399
    -1.8182  -1.0627  -0.7205  -0.6970  -0.4046   1.1176   2.7870   5.3375
     6.6946   7.1050   8.9943  10.6796

          k =-0.3638 0.0470 1.1915 (  2073 PWs)   bands (ev):

   -11.0708 -10.4622  -9.2462  -8.3592  -7.2950  -5.9683  -5.6247  -4.5094
    -3.6346  -2.6337  -2.1523   1.2989   1.4873   2.7828   2.9880   4.0043
     4.0915   5.7373   8.1086  10.0268

          k =-0.4724 0.5041-0.0247 (  2080 PWs)   bands (ev):

   -13.7988 -13.0458 -12.0303  -9.3155  -7.9921  -4.4590  -2.5007  -2.3784
    -0.5371  -0.3028   0.1383   0.1797   0.5356   1.4160   3.5339   5.9488
     7.6325   9.5807  10.3060  10.3607

          k =-0.3934 0.5382 0.6055 (  2072 PWs)   bands (ev):

   -13.0527 -12.4421 -11.2063  -9.0791  -7.0743  -4.6351  -2.8843  -2.2345
    -1.9165  -1.6104  -0.9937  -0.5202  -0.0460   1.3086   3.8012   5.2235
     6.6350   6.8201   9.2874  11.5765

          k =-0.3145 0.5723 1.2357 (  2070 PWs)   bands (ev):

   -10.9644 -10.5314  -9.1876  -8.4807  -7.2645  -6.0120  -5.6982  -4.3363
    -3.7089  -2.5954  -2.2065   0.6821   1.4688   2.9623   3.2157   4.0548
     4.3426   5.9127   8.0197  10.2815

          k =-0.6304 0.4358-1.2850 (  2070 PWs)   bands (ev):

   -11.1017 -10.1779  -9.6981  -7.8962  -7.5938  -5.6629  -5.5879  -4.9985
    -3.6458  -2.4820  -2.0997   0.9718   1.6967   2.4211   3.1445   3.7361
     4.7694   5.3601   8.7329   9.7531

          k =-0.5514 0.4699-0.6549 (  2081 PWs)   bands (ev):

   -13.1290 -12.2445 -11.4708  -8.3976  -7.8597  -3.9469  -3.0237  -2.6511
    -2.0139  -1.4041  -0.9294  -0.3403   0.0887   0.7861   4.2617   5.0260
     5.7768   7.0124  10.5218  11.4033

     the Fermi energy is     5.1633 ev

!    total energy              =     -90.77770304 Ry
     Harris-Foulkes estimate   =     -90.77770304 Ry
     estimated scf accuracy    <          1.1E-11 Ry

     The total energy is the sum of the following terms:

     one-electron contribution =     -38.32528927 Ry
     hartree contribution      =      32.91368751 Ry
     xc contribution           =     -27.65400277 Ry
     ewald contribution        =     -57.71114159 Ry
     smearing contrib. (-TS)   =      -0.00095693 Ry

     convergence has been achieved in  11 iterations

     Forces acting on atoms (cartesian axes, Ry/au):

     atom    1 type  1   force =     0.00011820    0.00002237    0.00139158
     atom    2 type  1   force =     0.00047699   -0.00020383    0.00152070
     atom    3 type  1   force =    -0.00048138   -0.00024389    0.00159550
     atom    4 type  1   force =    -0.00004101    0.00001197   -0.00169662
     atom    5 type  1   force =     0.00042307   -0.00020741    0.00233777
     atom    6 type  1   force =     0.00000523   -0.00003070   -0.00278780
     atom    7 type  1   force =     0.00048467    0.00016202   -0.00163490
     atom    8 type  1   force =    -0.00098579    0.00048949   -0.00072623

     Total force =     0.005328     Total SCF correction =     0.000007


     Computing stress (Cartesian axis) and pressure

          total   stress  (Ry/bohr**3)                   (kbar)     P=        0.47
   0.00000629   0.00000035  -0.00000269            0.93        0.05       -0.40
   0.00000035   0.00000141  -0.00000355            0.05        0.21       -0.52
  -0.00000269  -0.00000355   0.00000181           -0.40       -0.52        0.27


     number of scf cycles    =  30
     number of bfgs steps    =  29

     enthalpy old            =     -90.7776129215 Ry
     enthalpy new            =     -90.7776652063 Ry

     CASE: enthalpy_new < enthalpy_old

     new trust radius        =       0.0141057446 bohr
     new conv_thr            =            1.0E-10 Ry

     new unit-cell volume =    555.88789 a.u.^3 (    82.37409 Ang^3 )
     density =      1.93522 g/cm^3

CELL_PARAMETERS (bohr)
  13.787642571  -1.160591678  -1.690293148
  -0.309510927   9.034206372  -0.465147308
  -0.600149047  -0.341717684   4.571185890

ATOMIC_POSITIONS (crystal)
C             0.3374595070        0.4489894335        0.7699265358
C             0.7187707640        1.0692769480        0.4589974392
C             0.8043351835        0.9855071300        1.0040355322
C             0.1856139575        0.6056595648        0.6973710333
C             0.4182524884        0.3664437282        0.3108950151
C             0.1046923101        0.6880227830        0.1562982442
C             0.5682559407        0.2155322348        0.3861758882
C             0.9545778487        0.8386071778        1.0807853120



     Writing output data file ./pp.save/
     NEW-OLD atomic charge density approx. for the potential
     extrapolated charge   31.95907, renormalised to   32.00000

     total cpu time spent up to now is     2427.9 secs

     Self-consistent Calculation

     iteration #  1     ecut=    40.00 Ry     beta= 0.50
     Davidson diagonalization with overlap
     ethr =  1.00E-06,  avg # of iterations =  4.1

     total cpu time spent up to now is     2456.1 secs

     total energy              =     -90.77769123 Ry
     Harris-Foulkes estimate   =     -90.81564124 Ry
     estimated scf accuracy    <       0.00007374 Ry

     iteration #  2     ecut=    40.00 Ry     beta= 0.50
     Davidson diagonalization with overlap
     ethr =  2.30E-07,  avg # of iterations =  2.2

     total cpu time spent up to now is     2472.5 secs

     total energy              =     -90.77774251 Ry
     Harris-Foulkes estimate   =     -90.77776192 Ry
     estimated scf accuracy    <       0.00005149 Ry

     iteration #  3     ecut=    40.00 Ry     beta= 0.50
     Davidson diagonalization with overlap
     ethr =  1.61E-07,  avg # of iterations =  2.0

     total cpu time spent up to now is     2486.9 secs

     total energy              =     -90.77774782 Ry
     Harris-Foulkes estimate   =     -90.77775144 Ry
     estimated scf accuracy    <       0.00001064 Ry

     iteration #  4     ecut=    40.00 Ry     beta= 0.50
     Davidson diagonalization with overlap
     ethr =  3.33E-08,  avg # of iterations =  1.9

     total cpu time spent up to now is     2501.0 secs

     total energy              =     -90.77774846 Ry
     Harris-Foulkes estimate   =     -90.77774965 Ry
     estimated scf accuracy    <       0.00000368 Ry

     iteration #  5     ecut=    40.00 Ry     beta= 0.50
     Davidson diagonalization with overlap
     ethr =  1.15E-08,  avg # of iterations =  2.0

     total cpu time spent up to now is     2515.5 secs

     total energy              =     -90.77774896 Ry
     Harris-Foulkes estimate   =     -90.77774909 Ry
     estimated scf accuracy    <       0.00000038 Ry

     iteration #  6     ecut=    40.00 Ry     beta= 0.50
     Davidson diagonalization with overlap
     ethr =  1.20E-09,  avg # of iterations =  2.1

     total cpu time spent up to now is     2531.3 secs

     total energy              =     -90.77774903 Ry
     Harris-Foulkes estimate   =     -90.77774913 Ry
     estimated scf accuracy    <       0.00000040 Ry

     iteration #  7     ecut=    40.00 Ry     beta= 0.50
     Davidson diagonalization with overlap
     ethr =  1.20E-09,  avg # of iterations =  1.1

     total cpu time spent up to now is     2542.5 secs

     total energy              =     -90.77774907 Ry
     Harris-Foulkes estimate   =     -90.77774908 Ry
     estimated scf accuracy    <       0.00000003 Ry

     iteration #  8     ecut=    40.00 Ry     beta= 0.50
     Davidson diagonalization with overlap
     ethr =  8.87E-11,  avg # of iterations =  2.0

     total cpu time spent up to now is     2558.7 secs

     total energy              =     -90.77774908 Ry
     Harris-Foulkes estimate   =     -90.77774908 Ry
     estimated scf accuracy    <          1.9E-09 Ry

     iteration #  9     ecut=    40.00 Ry     beta= 0.50
     Davidson diagonalization with overlap
