
     Program PWSCF v.6.5 starts on  9Jul2022 at  2: 9: 3 

     This program is part of the open-source Quantum ESPRESSO suite
     for quantum simulation of materials; please cite
         "P. Giannozzi et al., J. Phys.:Condens. Matter 21 395502 (2009);
         "P. Giannozzi et al., J. Phys.:Condens. Matter 29 465901 (2017);
          URL http://www.quantum-espresso.org", 
     in publications or presentations arising from this work. More details at
     http://www.quantum-espresso.org/quote

     Parallel version (MPI), running on    96 processors

     MPI processes distributed on     2 nodes
     R & G space division:  proc/nbgrp/npool/nimage =      96
     Waiting for input...
     Reading input from standard input
     Message from routine read_cards :
     DEPRECATED: no units specified in CELL_PARAMETERS card

     Current dimensions of program PWSCF are:
     Max number of different atomic species (ntypx) = 10
     Max number of k-points (npk) =  40000
     Max angular momentum in pseudopotentials (lmaxx) =  3

     Subspace diagonalization in iterative solution of the eigenvalue problem:
     one sub-group per band group will be used
     scalapack distributed-memory algorithm (size of sub-group:  9*  9 procs)

 
     Parallelization info
     --------------------
     sticks:   dense  smooth     PW     G-vecs:    dense   smooth      PW
     Min          15      15      4                  189      189      32
     Max          16      16      5                  192      192      35
     Sum        1457    1457    457                18323    18323    3203
 


     bravais-lattice index     =            0
     lattice parameter (alat)  =      14.7261  a.u.
     unit-cell volume          =     534.5633 (a.u.)^3
     number of atoms/cell      =            8
     number of atomic types    =            1
     number of electrons       =        32.00
     number of Kohn-Sham states=           20
     kinetic-energy cutoff     =      40.0000  Ry
     charge density cutoff     =     160.0000  Ry
     convergence threshold     =      1.0E-06
     mixing beta               =       0.5000
     number of iterations used =            8  plain     mixing
     Exchange-correlation=  SLA  PW   PBE  PBE
                           (   1   4   3   4   0   0   0)
     nstep                     =          250


     celldm(1)=  14.726074  celldm(2)=   0.000000  celldm(3)=   0.000000
     celldm(4)=   0.000000  celldm(5)=   0.000000  celldm(6)=   0.000000

     crystal axes: (cart. coord. in units of alat)
               a(1) = (   0.999547   0.030103  -0.000048 )  
               a(2) = (   0.025159   0.528844   0.000170 )  
               a(3) = (   0.000034  -0.000068   0.317125 )  

     reciprocal axes: (cart. coord. in units 2 pi/alat)
               b(1) = (  1.001889 -0.047664 -0.000117 )  
               b(2) = ( -0.057030  1.893629  0.000412 )  
               b(3) = (  0.000181 -0.001021  3.153335 )  


     PseudoPot. # 1 for C  read from file:
     ./C.pbe-van_bm.upf
     MD5 check sum: 1a69bf6b8db32088f5b2163dbdb77a27
     Pseudo is Ultrasoft, Zval =  4.0
     Generated by new atomic code, or converted to UPF format
     Using radial grid of  721 points,  4 beta functions with: 
                l(1) =   0
                l(2) =   0
                l(3) =   1
                l(4) =   1
     Q(r) pseudized with  8 coefficients,  rinner =    0.800   0.800   0.800


     atomic species   valence    mass     pseudopotential
        C              4.00    12.00000     C ( 1.00)

     No symmetry found



   Cartesian axes

     site n.     atom                  positions (alat units)
         1           C   tau(   1) = (   0.5120232   0.5579287   0.1282633  )
         2           C   tau(   2) = (   0.8624433   0.3979984   0.1282235  )
         3           C   tau(   3) = (  -0.0733297   0.2060616   0.1282178  )
         4           C   tau(   4) = (   0.2768682   0.0460740   0.1281152  )
         5           C   tau(   5) = (   0.9593741   0.1349340   0.2866950  )
         6           C   tau(   6) = (   0.8293086   0.4991867   0.2868090  )
         7           C   tau(   7) = (   0.1836688   0.0536265   0.2866751  )
         8           C   tau(   8) = (   0.5800944   0.0214935   0.2866344  )

     number of k points=    14  Marzari-Vanderbilt smearing, width (Ry)=  0.0200
                       cart. coord. in units 2pi/alat
        k(    1) = (   0.0000000   0.0000000   0.0000000), wk =   0.0833333
        k(    2) = (   0.0000452  -0.0002552   0.7883337), wk =   0.1666667
        k(    3) = (  -0.0000904   0.0005104  -1.5766673), wk =   0.0833333
        k(    4) = (  -0.0190100   0.6312096   0.0001372), wk =   0.1666667
        k(    5) = (  -0.0189648   0.6309544   0.7884709), wk =   0.1666667
        k(    6) = (  -0.0191003   0.6317200  -1.5765301), wk =   0.1666667
        k(    7) = (  -0.0190551   0.6314648  -0.7881965), wk =   0.1666667
        k(    8) = (  -0.5009444   0.0238321   0.0000587), wk =   0.0833333
        k(    9) = (  -0.5008993   0.0235769   0.7883924), wk =   0.1666667
        k(   10) = (  -0.5010348   0.0243426  -1.5766086), wk =   0.0833333
        k(   11) = (  -0.5199544   0.6550417   0.0001959), wk =   0.1666667
        k(   12) = (  -0.5199092   0.6547865   0.7885296), wk =   0.1666667
        k(   13) = (  -0.5200448   0.6555522  -1.5764714), wk =   0.1666667
        k(   14) = (  -0.5199996   0.6552969  -0.7881377), wk =   0.1666667

     Dense  grid:    18323 G-vectors     FFT dimensions: (  60,  32,  20)

     Estimated max dynamical RAM per process >       2.57 MB

     Estimated total dynamical RAM >     247.17 MB

     Initial potential from superposition of free atoms

     starting charge   31.99968, renormalised to   32.00000
     Starting wfcs are   32 randomized atomic wfcs

     total cpu time spent up to now is        0.7 secs

     Self-consistent Calculation

     iteration #  1     ecut=    40.00 Ry     beta= 0.50
     Davidson diagonalization with overlap
     ethr =  1.00E-02,  avg # of iterations =  2.2

     total cpu time spent up to now is        1.5 secs

     total energy              =     -90.78421629 Ry
     Harris-Foulkes estimate   =     -91.05547391 Ry
     estimated scf accuracy    <       0.57967025 Ry

     iteration #  2     ecut=    40.00 Ry     beta= 0.50
     Davidson diagonalization with overlap
     ethr =  1.81E-03,  avg # of iterations =  2.3

     total cpu time spent up to now is        2.2 secs

     total energy              =     -90.81923738 Ry
     Harris-Foulkes estimate   =     -90.83990144 Ry
     estimated scf accuracy    <       0.05455337 Ry

     iteration #  3     ecut=    40.00 Ry     beta= 0.50
     Davidson diagonalization with overlap
     ethr =  1.70E-04,  avg # of iterations =  2.9

     total cpu time spent up to now is        3.0 secs

     total energy              =     -90.82279842 Ry
     Harris-Foulkes estimate   =     -90.82610235 Ry
     estimated scf accuracy    <       0.00819361 Ry

     iteration #  4     ecut=    40.00 Ry     beta= 0.50
     Davidson diagonalization with overlap
     ethr =  2.56E-05,  avg # of iterations =  4.1

     total cpu time spent up to now is        4.0 secs

     total energy              =     -90.81937509 Ry
     Harris-Foulkes estimate   =     -90.83456856 Ry
     estimated scf accuracy    <       0.10566586 Ry

     iteration #  5     ecut=    40.00 Ry     beta= 0.50
     Davidson diagonalization with overlap
     ethr =  2.56E-05,  avg # of iterations =  3.4

     total cpu time spent up to now is        4.9 secs

     total energy              =     -90.82597387 Ry
     Harris-Foulkes estimate   =     -90.82610552 Ry
     estimated scf accuracy    <       0.00064204 Ry

     iteration #  6     ecut=    40.00 Ry     beta= 0.50
     Davidson diagonalization with overlap
     ethr =  2.01E-06,  avg # of iterations =  3.1

     total cpu time spent up to now is        5.7 secs

     total energy              =     -90.82607507 Ry
     Harris-Foulkes estimate   =     -90.82612195 Ry
     estimated scf accuracy    <       0.00017635 Ry

     iteration #  7     ecut=    40.00 Ry     beta= 0.50
     Davidson diagonalization with overlap
     ethr =  5.51E-07,  avg # of iterations =  2.0

     total cpu time spent up to now is        6.4 secs

     total energy              =     -90.82610416 Ry
     Harris-Foulkes estimate   =     -90.82610736 Ry
     estimated scf accuracy    <       0.00001709 Ry

     iteration #  8     ecut=    40.00 Ry     beta= 0.50
     Davidson diagonalization with overlap
     ethr =  5.34E-08,  avg # of iterations =  2.1

     total cpu time spent up to now is        7.0 secs

     End of self-consistent calculation

          k = 0.0000 0.0000 0.0000 (  2297 PWs)   bands (ev):

   -13.4433 -11.6916 -10.7417  -8.3026  -6.3375  -3.6384  -2.0839   0.0568
     0.1188   0.4346   1.0965   1.6460   2.3273   2.5724   3.6710   3.6996
     7.9757   9.8516   9.9547  10.4519

          k = 0.0000-0.0003 0.7883 (  2275 PWs)   bands (ev):

   -12.3058 -10.6150  -9.6717  -7.3171  -5.7309  -3.1443  -2.9889  -2.1179
    -1.8795  -1.1157   0.2050   0.5251   1.4016   2.0904   3.1079   3.4198
     8.5814   8.9290   9.5872  11.1417

          k =-0.0001 0.0005-1.5767 (  2294 PWs)   bands (ev):

    -9.0763  -8.9486  -7.7400  -7.1383  -6.7143  -6.3696  -4.4005  -4.3956
    -2.9472  -0.8431  -0.8258   0.2777   0.5057   3.3061   4.4387   5.6278
     6.0911   7.2636   8.5036  10.5792

          k =-0.0190 0.6312 0.0001 (  2301 PWs)   bands (ev):

   -12.8648 -11.8315 -10.8305  -9.8485  -4.7515  -3.8908  -1.5494  -0.4070
    -0.3133   0.6567   1.2103   1.7849   1.9143   2.7340   2.9159   4.5159
     7.6133   8.1868  10.3241  11.9817

          k =-0.0190 0.6310 0.7885 (  2279 PWs)   bands (ev):

   -11.7405 -10.7497  -9.7489  -8.8278  -4.3316  -3.2290  -2.6387  -2.1728
    -1.7816  -1.0973  -0.3867   0.1290   0.9608   2.1989   3.1425   4.2166
     7.7743   8.7598   9.8121  11.1544

          k =-0.0191 0.6317-1.5765 (  2276 PWs)   bands (ev):

    -8.6472  -8.4388  -7.8232  -7.2660  -6.6866  -6.3442  -5.7587  -5.5541
    -1.7352  -0.8872  -0.5174   0.4051   1.1264   3.1071   4.0823   5.2434
     5.9661   7.3229   8.5129  10.3228

          k =-0.0191 0.6315-0.7882 (  2279 PWs)   bands (ev):

   -11.7402 -10.7497  -9.7492  -8.8280  -4.3315  -3.2289  -2.6390  -2.1729
    -1.7812  -1.0968  -0.3869   0.1291   0.9607   2.1987   3.1423   4.2168
     7.7744   8.7593   9.8123  11.1546

          k =-0.5009 0.0238 0.0001 (  2276 PWs)   bands (ev):

   -13.3876 -12.0430 -10.0336  -8.9153  -6.0421  -4.1342  -1.2512  -0.0437
     0.3508   0.6123   0.7522   1.6612   1.8609   2.4800   3.4072   3.6479
     9.1624   9.5397  10.5314  10.5372

          k =-0.5009 0.0236 0.7884 (  2281 PWs)   bands (ev):

   -12.2507 -10.9495  -9.0213  -7.8708  -5.5035  -3.4269  -2.9356  -2.5300
    -1.4245  -0.3208  -0.1027   0.6114   1.2003   1.9300   2.7642   3.5320
     8.3765   9.5497   9.5682  11.2479

          k =-0.5010 0.0243-1.5766 (  2304 PWs)   bands (ev):

    -9.0405  -8.8860  -7.8935  -7.6245  -6.0680  -5.9481  -4.8156  -4.7140
    -2.7619  -0.9359  -0.6636  -0.2492   1.0341   3.3838   4.4036   5.8133
     5.9411   7.5804   8.0780   9.4053

          k =-0.5200 0.6550 0.0002 (  2289 PWs)   bands (ev):

   -12.7954 -11.9849 -10.9076  -9.5168  -5.7008  -2.6584  -2.0885  -0.0785
     0.6658   0.6892   1.1508   1.2539   1.5006   1.8001   2.9325   4.7319
     7.8236   9.7837   9.9977  11.2085

          k =-0.5199 0.6548 0.7885 (  2284 PWs)   bands (ev):

   -11.6737 -10.8901  -9.8399  -8.5048  -4.9401  -2.9983  -2.7735  -1.8829
    -1.4088  -1.0980  -0.8048   0.9125   1.1660   1.5946   2.5819   4.1521
     8.2281   8.8874   9.8042  11.3207

          k =-0.5200 0.6556-1.5765 (  2286 PWs)   bands (ev):

    -8.6350  -8.3329  -7.8087  -7.6398  -6.5967  -6.3383  -5.5585  -5.4348
    -2.0765  -1.0752  -0.6383   0.8403   1.2928   3.0237   4.2176   5.5839
     5.6291   7.2275   8.6781   9.2816

          k =-0.5200 0.6553-0.7881 (  2284 PWs)   bands (ev):

   -11.6733 -10.8901  -9.8403  -8.5050  -4.9400  -2.9983  -2.7736  -1.8826
    -1.4084  -1.0984  -0.8045   0.9126   1.1660   1.5942   2.5818   4.1522
     8.2279   8.8875   9.8041  11.3208

     the Fermi energy is     5.7231 ev

!    total energy              =     -90.82610687 Ry
     Harris-Foulkes estimate   =     -90.82610702 Ry
     estimated scf accuracy    <       0.00000076 Ry

     The total energy is the sum of the following terms:

     one-electron contribution =     -41.09516957 Ry
     hartree contribution      =      35.06753378 Ry
     xc contribution           =     -27.33483356 Ry
     ewald contribution        =     -57.46269516 Ry
     smearing contrib. (-TS)   =      -0.00094236 Ry

     convergence has been achieved in   8 iterations

     Forces acting on atoms (cartesian axes, Ry/au):

     atom    1 type  1   force =    -0.04689631    0.00687028   -0.00013560
     atom    2 type  1   force =    -0.01181601    0.01322098   -0.00003277
     atom    3 type  1   force =     0.01152493   -0.01282587   -0.00007069
     atom    4 type  1   force =     0.04701597   -0.00687068   -0.00014818
     atom    5 type  1   force =     0.02839087    0.01554863   -0.00000044
     atom    6 type  1   force =    -0.02844398   -0.01589817    0.00000285
     atom    7 type  1   force =    -0.01598275    0.00129714    0.00020203
     atom    8 type  1   force =     0.01620727   -0.00134231    0.00018280

     Total force =     0.088018     Total SCF correction =     0.001302


     Computing stress (Cartesian axis) and pressure

          total   stress  (Ry/bohr**3)                   (kbar)     P=     -205.21
  -0.00393295   0.00025518   0.00000015         -578.56       37.54        0.02
   0.00025518  -0.00036232  -0.00000099           37.54      -53.30       -0.15
   0.00000015  -0.00000099   0.00011036            0.02       -0.15       16.23


     BFGS Geometry Optimization

     number of scf cycles    =   1
     number of bfgs steps    =   0

     enthalpy new            =     -90.8260705290 Ry

     new trust radius        =       0.4556251876 bohr
     new conv_thr            =       0.0000010000 Ry

     new unit-cell volume =    478.93044 a.u.^3 (    70.97017 Ang^3 )
     density =      2.24618 g/cm^3

CELL_PARAMETERS (bohr)
  13.274936095   0.533184706  -0.000656759
   0.383751888   7.719607753   0.002316251
   0.000462258  -0.001102917   4.682876777

ATOMIC_POSITIONS (crystal)
C             0.4831691722        1.0284270634        0.4039499110
C             0.8442403050        0.7062748473        0.4040729214
C            -0.0824793865        0.3927450846        0.4040758945
C             0.2784009728        0.0704444146        0.4039623223
C             0.9566022474        0.2028094511        0.9040801766
C             0.8051642709        0.8961628068        0.9040463639
C             0.1803344128        0.0914207012        0.9040039754
C             0.5812390052        0.0075006311        0.9039764346



     Writing output data file ./pp.save/
     NEW-OLD atomic charge density approx. for the potential
     extrapolated charge   28.28290, renormalised to   32.00000

     total cpu time spent up to now is        7.3 secs

     Self-consistent Calculation

     iteration #  1     ecut=    40.00 Ry     beta= 0.50
     Davidson diagonalization with overlap
     c_bands:  1 eigenvalues not converged
     c_bands:  1 eigenvalues not converged
     ethr =  1.00E-06,  avg # of iterations = 16.5

     total cpu time spent up to now is       10.9 secs

     total energy              =     -90.38966280 Ry
     Harris-Foulkes estimate   =     -94.51658049 Ry
     estimated scf accuracy    <       0.48297227 Ry

     iteration #  2     ecut=    40.00 Ry     beta= 0.50
     Davidson diagonalization with overlap
     ethr =  1.51E-03,  avg # of iterations =  5.2

     total cpu time spent up to now is       12.4 secs

     total energy              =     -90.71631571 Ry
     Harris-Foulkes estimate   =     -91.31590212 Ry
     estimated scf accuracy    <       2.25023322 Ry

     iteration #  3     ecut=    40.00 Ry     beta= 0.50
     Davidson diagonalization with overlap
     ethr =  1.51E-03,  avg # of iterations =  3.1

     total cpu time spent up to now is       13.2 secs

     total energy              =     -90.98318181 Ry
     Harris-Foulkes estimate   =     -90.99632677 Ry
     estimated scf accuracy    <       0.05576185 Ry

     iteration #  4     ecut=    40.00 Ry     beta= 0.50
     Davidson diagonalization with overlap
     ethr =  1.74E-04,  avg # of iterations =  3.5

     total cpu time spent up to now is       14.1 secs

     total energy              =     -90.97860197 Ry
     Harris-Foulkes estimate   =     -90.98587410 Ry
     estimated scf accuracy    <       0.02650383 Ry

     iteration #  5     ecut=    40.00 Ry     beta= 0.50
     Davidson diagonalization with overlap
     ethr =  8.28E-05,  avg # of iterations =  3.0

     total cpu time spent up to now is       14.9 secs

     total energy              =     -90.97824883 Ry
     Harris-Foulkes estimate   =     -90.98061385 Ry
     estimated scf accuracy    <       0.01537458 Ry

     iteration #  6     ecut=    40.00 Ry     beta= 0.50
     Davidson diagonalization with overlap
     ethr =  4.80E-05,  avg # of iterations =  1.6

     total cpu time spent up to now is       15.5 secs

     total energy              =     -90.97698588 Ry
     Harris-Foulkes estimate   =     -90.97920883 Ry
     estimated scf accuracy    <       0.00623470 Ry

     iteration #  7     ecut=    40.00 Ry     beta= 0.50
     Davidson diagonalization with overlap
     ethr =  1.95E-05,  avg # of iterations =  3.9

     total cpu time spent up to now is       16.4 secs

     total energy              =     -90.97738820 Ry
     Harris-Foulkes estimate   =     -90.97760668 Ry
     estimated scf accuracy    <       0.00076414 Ry

     iteration #  8     ecut=    40.00 Ry     beta= 0.50
     Davidson diagonalization with overlap
     ethr =  2.39E-06,  avg # of iterations =  3.3

     total cpu time spent up to now is       17.3 secs

     total energy              =     -90.97739221 Ry
     Harris-Foulkes estimate   =     -90.97746353 Ry
     estimated scf accuracy    <       0.00018699 Ry

     iteration #  9     ecut=    40.00 Ry     beta= 0.50
     Davidson diagonalization with overlap
     ethr =  5.84E-07,  avg # of iterations =  2.7

     total cpu time spent up to now is       18.1 secs

     total energy              =     -90.97741153 Ry
     Harris-Foulkes estimate   =     -90.97742156 Ry
     estimated scf accuracy    <       0.00001952 Ry

     iteration # 10     ecut=    40.00 Ry     beta= 0.50
     Davidson diagonalization with overlap
     ethr =  6.10E-08,  avg # of iterations =  2.9

     total cpu time spent up to now is       19.0 secs

     total energy              =     -90.97741599 Ry
     Harris-Foulkes estimate   =     -90.97741744 Ry
     estimated scf accuracy    <       0.00000234 Ry

     iteration # 11     ecut=    40.00 Ry     beta= 0.50
     Davidson diagonalization with overlap
     ethr =  7.32E-09,  avg # of iterations =  2.3

     total cpu time spent up to now is       19.9 secs

     End of self-consistent calculation

          k = 0.0000 0.0000 0.0000 (  2297 PWs)   bands (ev):

   -12.9140 -11.1742 -10.1439  -6.7323  -5.7670  -2.9380  -1.1342   0.6064
     0.6756   1.0015   1.8460   2.4484   3.7291   3.9735   4.8012   4.9849
    10.1937  10.8933  12.2276  12.6519

          k = 0.0000-0.0002 0.7862 (  2275 PWs)   bands (ev):

   -11.7862 -10.1072  -9.0707  -5.7852  -5.1687  -2.8495  -2.4163  -1.3081
    -1.2624  -0.0666   1.4152   1.4671   1.9007   2.7061   4.2024   5.0570
     9.5561  10.6397  12.1966  13.3266

          k =-0.0001 0.0005-1.5723 (  2294 PWs)   bands (ev):

    -8.5903  -8.4479  -7.4193  -6.4572  -6.2439  -5.5872  -2.9868  -2.9647
    -2.1868  -0.3879  -0.1525   0.9772   1.1242   4.3511   4.7629   6.4350
     7.3131   8.5244  10.4345  13.1649

          k =-0.0256 0.6371 0.0002 (  2301 PWs)   bands (ev):

   -12.4373 -11.2893 -10.1526  -8.6596  -3.7620  -3.2429  -0.6869   0.1361
     0.7335   0.8339   1.8910   2.7568   3.6224   3.8785   3.9287   5.7906
     8.9474  10.9411  12.9667  13.1027

          k =-0.0255 0.6369 0.7863 (  2279 PWs)   bands (ev):

   -11.3238 -10.2126  -9.0780  -7.6560  -3.5549  -2.8675  -2.1042  -1.3094
    -1.0543  -0.0035   0.4058   1.2186   1.4706   3.0536   4.8249   5.3046
     8.8234  10.3069  13.0030  13.8150

          k =-0.0257 0.6376-1.5722 (  2276 PWs)   bands (ev):

    -8.1744  -8.0893  -7.4405  -6.7768  -5.9730  -5.5392  -4.6424  -4.2895
    -0.6964  -0.1374   0.1233   0.9056   1.8983   4.1205   4.3854   6.0217
     7.3036   9.0217  10.0577  13.3453

          k =-0.0256 0.6374-0.7860 (  2279 PWs)   bands (ev):

   -11.3237 -10.2125  -9.0782  -7.6562  -3.5550  -2.8674  -2.1043  -1.3094
    -1.0539  -0.0032   0.4056   1.2186   1.4705   3.0535   4.8247   5.3046
     8.8236  10.3068  13.0031  13.8148

          k =-0.5558 0.0276 0.0001 (  2276 PWs)   bands (ev):

   -12.7200 -11.8778  -8.7339  -8.1732  -5.0246  -3.6635  -0.5547   0.9465
     1.2029   1.2405   1.2670   2.8479   2.9959   3.8808   4.5350   4.6089
    11.0157  11.4194  12.3517  12.5756

          k =-0.5557 0.0274 0.7862 (  2281 PWs)   bands (ev):

   -11.5894 -10.7931  -7.7484  -7.1402  -4.5508  -3.2444  -2.2611  -2.0443
    -0.2169   0.4411   0.5811   1.8281   2.0613   2.9031   3.6796   4.8226
     9.7753  10.9579  12.0917  12.8051

          k =-0.5559 0.0281-1.5723 (  2304 PWs)   bands (ev):

    -8.4197  -8.2182  -7.8654  -7.4182  -4.9283  -4.5845  -4.0788  -3.8291
    -1.5647  -0.4193   0.0167   0.1572   1.8320   4.4970   4.6569   6.8493
     6.9490   9.3954   9.3988  13.1026

          k =-0.5814 0.6648 0.0002 (  2289 PWs)   bands (ev):

   -12.2105 -11.7360 -10.1351  -7.9557  -5.4900  -1.7940  -1.1115   0.8160
     0.8886   1.7669   1.8597   2.4987   2.7317   2.7842   3.9905   5.9255
     9.6533  11.3937  12.5349  13.5817

          k =-0.5813 0.6645 0.7864 (  2284 PWs)   bands (ev):

   -11.1009 -10.6422  -9.0771  -6.9714  -4.7293  -2.5471  -2.3573  -1.1288
    -0.5957   0.0641   0.3707   1.7681   1.9043   2.6504   3.7918   5.2864
     9.7797   9.9467  12.3757  13.6898

          k =-0.5815 0.6652-1.5721 (  2286 PWs)   bands (ev):

    -8.0017  -7.9331  -7.5254  -7.4246  -5.8758  -5.4812  -4.1077  -3.9930
    -1.5561  -0.9558   0.4071   1.5744   2.1395   3.7644   4.8450   6.6227
     6.7004   8.9233  10.0381  12.9958

          k =-0.5814 0.6650-0.7860 (  2284 PWs)   bands (ev):

   -11.1007 -10.6422  -9.0774  -6.9715  -4.7293  -2.5470  -2.3575  -1.1285
    -0.5954   0.0639   0.3710   1.7682   1.9043   2.6500   3.7917   5.2864
     9.7797   9.9468  12.3757  13.6899

     the Fermi energy is     6.7578 ev

!    total energy              =     -90.97741663 Ry
     Harris-Foulkes estimate   =     -90.97741670 Ry
     estimated scf accuracy    <       0.00000013 Ry

     The total energy is the sum of the following terms:

     one-electron contribution =     -36.02096618 Ry
     hartree contribution      =      33.85315457 Ry
     xc contribution           =     -27.89997008 Ry
     ewald contribution        =     -60.90880196 Ry
     smearing contrib. (-TS)   =      -0.00083298 Ry

     convergence has been achieved in  11 iterations

     Forces acting on atoms (cartesian axes, Ry/au):

     atom    1 type  1   force =     0.01314299    0.00362026    0.00014024
     atom    2 type  1   force =     0.01365526   -0.00741783   -0.00005104
     atom    3 type  1   force =    -0.01374222    0.00729122   -0.00000644
     atom    4 type  1   force =    -0.01291581   -0.00368191    0.00014999
     atom    5 type  1   force =     0.03268107   -0.02288856   -0.00005283
     atom    6 type  1   force =    -0.03338963    0.02318711    0.00002937
     atom    7 type  1   force =    -0.06181234    0.00604385   -0.00009751
     atom    8 type  1   force =     0.06238068   -0.00615412   -0.00011179

     Total force =     0.108999     Total SCF correction =     0.000675


     Computing stress (Cartesian axis) and pressure

          total   stress  (Ry/bohr**3)                   (kbar)     P=      -29.63
  -0.00107243  -0.00025749  -0.00000023         -157.76      -37.88       -0.03
  -0.00025749   0.00019029  -0.00000048          -37.88       27.99       -0.07
  -0.00000023  -0.00000048   0.00027798           -0.03       -0.07       40.89


     number of scf cycles    =   2
     number of bfgs steps    =   1

     enthalpy old            =     -90.8260705290 Ry
     enthalpy new            =     -90.9773840718 Ry

     CASE: enthalpy_new < enthalpy_old

     new trust radius        =       0.2285321539 bohr
     new conv_thr            =       0.0000006238 Ry

     new unit-cell volume =    460.23119 a.u.^3 (    68.19923 Ang^3 )
     density =      2.33744 g/cm^3

CELL_PARAMETERS (bohr)
  12.583803677   0.419418339  -0.000774281
   0.313225475   7.753903374   0.002201922
   0.000415763  -0.001191109   4.723118284

ATOMIC_POSITIONS (crystal)
C             0.4838691614        1.0291179925        0.4039866206
C             0.8452918986        0.7051600767        0.4040582863
C            -0.0835400370        0.3938444821        0.4040715137
C             0.2777207703        0.0697421169        0.4040020871
C             0.9595817089        0.1990064089        0.9040676721
C             0.8021252941        0.9000141798        0.9040521508
C             0.1751173349        0.0926975826        0.9039793037
C             0.5865048689        0.0062021607        0.9039503657



     Writing output data file ./pp.save/
     NEW-OLD atomic charge density approx. for the potential
     extrapolated charge   30.69985, renormalised to   32.00000

     total cpu time spent up to now is       19.9 secs

     Self-consistent Calculation

     iteration #  1     ecut=    40.00 Ry     beta= 0.50
     Davidson diagonalization with overlap
     c_bands:  1 eigenvalues not converged
     c_bands:  1 eigenvalues not converged
     c_bands:  1 eigenvalues not converged
     c_bands:  1 eigenvalues not converged
     ethr =  1.00E-06,  avg # of iterations = 15.3

     total cpu time spent up to now is       23.7 secs

     total energy              =     -90.92531332 Ry
     Harris-Foulkes estimate   =     -92.21478121 Ry
     estimated scf accuracy    <       0.04879231 Ry

     iteration #  2     ecut=    40.00 Ry     beta= 0.50
     Davidson diagonalization with overlap
     ethr =  1.52E-04,  avg # of iterations =  4.3

     total cpu time spent up to now is       25.1 secs

     total energy              =     -90.98172742 Ry
     Harris-Foulkes estimate   =     -91.00456651 Ry
     estimated scf accuracy    <       0.06300179 Ry

     iteration #  3     ecut=    40.00 Ry     beta= 0.50
     Davidson diagonalization with overlap
     ethr =  1.52E-04,  avg # of iterations =  2.9

     total cpu time spent up to now is       26.1 secs

     total energy              =     -90.98559959 Ry
     Harris-Foulkes estimate   =     -90.98785482 Ry
     estimated scf accuracy    <       0.00799658 Ry

     iteration #  4     ecut=    40.00 Ry     beta= 0.50
     Davidson diagonalization with overlap
     ethr =  2.50E-05,  avg # of iterations =  2.7

     total cpu time spent up to now is       27.0 secs

     total energy              =     -90.98466051 Ry
     Harris-Foulkes estimate   =     -90.98599574 Ry
     estimated scf accuracy    <       0.00284414 Ry

     iteration #  5     ecut=    40.00 Ry     beta= 0.50
     Davidson diagonalization with overlap
     ethr =  8.89E-06,  avg # of iterations =  4.2

     total cpu time spent up to now is       28.4 secs

     total energy              =     -90.98498617 Ry
     Harris-Foulkes estimate   =     -90.98544346 Ry
     estimated scf accuracy    <       0.00233207 Ry

     iteration #  6     ecut=    40.00 Ry     beta= 0.50
     Davidson diagonalization with overlap
     ethr =  7.29E-06,  avg # of iterations =  1.1

     total cpu time spent up to now is       29.0 secs

     total energy              =     -90.98522228 Ry
     Harris-Foulkes estimate   =     -90.98524512 Ry
     estimated scf accuracy    <       0.00009335 Ry

     iteration #  7     ecut=    40.00 Ry     beta= 0.50
     Davidson diagonalization with overlap
     ethr =  2.92E-07,  avg # of iterations =  2.3

     total cpu time spent up to now is       30.0 secs

     total energy              =     -90.98522630 Ry
     Harris-Foulkes estimate   =     -90.98523368 Ry
     estimated scf accuracy    <       0.00001729 Ry

     iteration #  8     ecut=    40.00 Ry     beta= 0.50
     Davidson diagonalization with overlap
     ethr =  5.40E-08,  avg # of iterations =  2.1

     total cpu time spent up to now is       31.0 secs

     total energy              =     -90.98522909 Ry
     Harris-Foulkes estimate   =     -90.98522935 Ry
     estimated scf accuracy    <       0.00000065 Ry

     iteration #  9     ecut=    40.00 Ry     beta= 0.50
     Davidson diagonalization with overlap
     ethr =  2.02E-09,  avg # of iterations =  2.4

     total cpu time spent up to now is       32.1 secs

     End of self-consistent calculation

          k = 0.0000 0.0000 0.0000 (  2297 PWs)   bands (ev):

   -12.7786 -10.7171 -10.0575  -5.8944  -5.7953  -2.5908  -0.8962   0.7563
     0.9363   1.2561   2.4529   2.7565   3.9904   4.4436   5.5392   5.6917
    10.4812  11.3133  12.7390  13.4545

          k = 0.0001-0.0002 0.7795 (  2275 PWs)   bands (ev):

   -11.6703  -9.6692  -8.9999  -5.2793  -4.9447  -2.7072  -2.0743  -1.3389
    -0.7098   0.3643   1.7120   2.0512   2.4031   2.6750   4.5064   5.8846
     9.7400  11.2056  12.6299  13.8208

          k =-0.0001 0.0004-1.5589 (  2294 PWs)   bands (ev):

    -8.6783  -8.2740  -7.0818  -6.4079  -5.9395  -5.2671  -2.1888  -2.0853
    -2.0652  -0.4288   0.4430   1.0467   1.1052   4.7166   4.9541   6.7356
     7.8331   8.9123  11.3715  13.9549

          k =-0.0211 0.6339 0.0002 (  2301 PWs)   bands (ev):

   -12.3651 -10.9183  -9.9060  -8.2137  -3.4324  -2.8390  -0.5134   0.4267
     0.9066   1.0388   2.2875   3.3232   3.8835   4.6800   4.7166   6.0035
     9.4053  11.5293  13.4757  13.7730

          k =-0.0211 0.6337 0.7796 (  2279 PWs)   bands (ev):

   -11.2707  -9.8558  -8.8573  -7.2382  -3.4259  -2.6294  -1.8129  -0.9141
    -0.7358   0.4123   0.6305   1.6701   1.8591   3.3501   5.4474   5.8283
     9.1288  10.7465  13.6267  14.7968

          k =-0.0212 0.6344-1.5588 (  2276 PWs)   bands (ev):

    -8.3403  -7.9841  -7.0674  -6.7330  -5.6016  -5.1764  -4.1494  -3.6760
    -0.2089   0.2452   0.5058   0.8538   2.0330   4.4628   4.5605   6.3061
     7.9703   9.6103  10.7943  14.4505

          k =-0.0212 0.6341-0.7793 (  2279 PWs)   bands (ev):

   -11.2707  -9.8558  -8.8574  -7.2383  -3.4258  -2.6294  -1.8130  -0.9139
    -0.7357   0.4123   0.6305   1.6701   1.8591   3.3502   5.4473   5.8283
     9.1289  10.7464  13.6267  14.7972

          k =-0.5859 0.0237 0.0001 (  2276 PWs)   bands (ev):

   -12.5078 -11.7382  -8.1231  -7.9066  -4.7336  -3.5069  -0.4296   1.0642
     1.4932   1.7450   1.9106   3.3248   3.7110   4.1074   4.7373   5.3480
    11.5157  12.0176  13.1219  13.3002

          k =-0.5859 0.0234 0.7795 (  2281 PWs)   bands (ev):

   -11.3944 -10.6716  -7.1719  -6.9077  -4.3459  -3.1951  -1.9425  -1.7691
     0.4157   0.5834   0.8171   2.3344   2.5621   3.2987   3.9976   5.3193
    10.1649  11.3683  12.8369  13.3842

          k =-0.5860 0.0241-1.5589 (  2304 PWs)   bands (ev):

    -8.4734  -7.8651  -7.7898  -7.4205  -4.4146  -3.8844  -3.8063  -3.3791
    -1.0548   0.0689   0.1083   0.1204   1.8986   4.7667   4.9371   7.2979
     7.3389   9.9519  10.1125  13.9775

          k =-0.6070 0.6576 0.0002 (  2289 PWs)   bands (ev):

   -12.0296 -11.6354  -9.7354  -7.1563  -5.6084  -1.5862  -0.7489   1.0053
     1.3193   2.0339   2.2552   2.9852   3.1196   3.4211   4.7859   6.0721
    10.3592  11.9145  13.3431  14.1110

          k =-0.6070 0.6574 0.7797 (  2284 PWs)   bands (ev):

   -10.9372 -10.5595  -8.7005  -6.1919  -4.9171  -2.4019  -2.1650  -0.8413
    -0.4010   0.6289   1.1129   1.9304   2.2951   3.1396   4.3453   5.5519
    10.2995  10.4229  13.0823  14.6626

          k =-0.6071 0.6580-1.5587 (  2286 PWs)   bands (ev):

    -8.0676  -7.8581  -7.4667  -7.2142  -5.5859  -4.9494  -3.3810  -3.1415
    -1.4106  -1.2420   1.1138   1.6282   2.3178   3.9333   5.2361   6.9613
     7.3045   9.6210  10.5597  14.4694

          k =-0.6071 0.6578-0.7792 (  2284 PWs)   bands (ev):

   -10.9371 -10.5595  -8.7006  -6.1920  -4.9171  -2.4017  -2.1650  -0.8413
    -0.4010   0.6288   1.1130   1.9303   2.2953   3.1395   4.3453   5.5520
    10.2995  10.4228  13.0823  14.6627

     the Fermi energy is     7.2302 ev

!    total energy              =     -90.98522922 Ry
     Harris-Foulkes estimate   =     -90.98522924 Ry
     estimated scf accuracy    <       0.00000005 Ry

     The total energy is the sum of the following terms:

     one-electron contribution =     -34.36189064 Ry
     hartree contribution      =      33.53449322 Ry
     xc contribution           =     -28.09757762 Ry
     ewald contribution        =     -62.05984697 Ry
     smearing contrib. (-TS)   =      -0.00040721 Ry

     convergence has been achieved in   9 iterations

     Forces acting on atoms (cartesian axes, Ry/au):

     atom    1 type  1   force =     0.08520091   -0.00274933   -0.00014003
     atom    2 type  1   force =     0.00771021    0.01543811    0.00001528
     atom    3 type  1   force =    -0.00793694   -0.01523175   -0.00003795
     atom    4 type  1   force =    -0.08477243    0.00267653   -0.00010610
     atom    5 type  1   force =    -0.04954807    0.03469856   -0.00002641
     atom    6 type  1   force =     0.04912955   -0.03474901   -0.00007969
     atom    7 type  1   force =     0.00971384   -0.00459136    0.00017042
     atom    8 type  1   force =    -0.00949706    0.00450824    0.00020446

     Total force =     0.150198     Total SCF correction =     0.000501


     Computing stress (Cartesian axis) and pressure

          total   stress  (Ry/bohr**3)                   (kbar)     P=       57.01
   0.00127961  -0.00051505  -0.00000030          188.24      -75.77       -0.04
  -0.00051505   0.00020790  -0.00000013          -75.77       30.58       -0.02
  -0.00000030  -0.00000013  -0.00032481           -0.04       -0.02      -47.78


     number of scf cycles    =   3
     number of bfgs steps    =   2

     enthalpy old            =     -90.9773840718 Ry
     enthalpy new            =     -90.9851979329 Ry

     CASE: enthalpy_new < enthalpy_old

     new trust radius        =       0.0873652351 bohr
     new conv_thr            =       0.0000007814 Ry

     new unit-cell volume =    468.61379 a.u.^3 (    69.44140 Ang^3 )
     density =      2.29563 g/cm^3

CELL_PARAMETERS (bohr)
  12.824892969   0.312649174  -0.000835869
   0.270567774   7.770978797   0.002174049
   0.000412470  -0.001206314   4.706026227

ATOMIC_POSITIONS (crystal)
C             0.4866277042        1.0287809453        0.4039709631
C             0.8455296911        0.7062290281        0.4040591776
C            -0.0837858013        0.3927905448        0.4040674198
C             0.2749766300        0.0700729557        0.4039893934
C             0.9579829709        0.2015002560        0.9040624690
C             0.8037094230        0.8975182914        0.9040444606
C             0.1753326609        0.0923788615        0.9039997510
C             0.5862977212        0.0065141172        0.9039743655



     Writing output data file ./pp.save/
     NEW-OLD atomic charge density approx. for the potential
     extrapolated charge   32.57241, renormalised to   32.00000

     total cpu time spent up to now is       32.1 secs

     Self-consistent Calculation

     iteration #  1     ecut=    40.00 Ry     beta= 0.50
     Davidson diagonalization with overlap
     ethr =  1.00E-06,  avg # of iterations =  9.9

     total cpu time spent up to now is       35.8 secs

     total energy              =     -90.98539509 Ry
     Harris-Foulkes estimate   =     -90.44363898 Ry
     estimated scf accuracy    <       0.01027061 Ry

     iteration #  2     ecut=    40.00 Ry     beta= 0.50
     Davidson diagonalization with overlap
     ethr =  3.21E-05,  avg # of iterations =  5.5

     total cpu time spent up to now is       38.1 secs

     total energy              =     -90.99710257 Ry
     Harris-Foulkes estimate   =     -91.00133114 Ry
     estimated scf accuracy    <       0.01138758 Ry

     iteration #  3     ecut=    40.00 Ry     beta= 0.50
     Davidson diagonalization with overlap
     ethr =  3.21E-05,  avg # of iterations =  2.9

     total cpu time spent up to now is       39.4 secs

     total energy              =     -90.99770854 Ry
     Harris-Foulkes estimate   =     -90.99826280 Ry
     estimated scf accuracy    <       0.00173172 Ry

     iteration #  4     ecut=    40.00 Ry     beta= 0.50
     Davidson diagonalization with overlap
     ethr =  5.41E-06,  avg # of iterations =  3.9

     total cpu time spent up to now is       42.1 secs

     total energy              =     -90.99753976 Ry
     Harris-Foulkes estimate   =     -90.99810461 Ry
     estimated scf accuracy    <       0.00300471 Ry

     iteration #  5     ecut=    40.00 Ry     beta= 0.50
     Davidson diagonalization with overlap
     ethr =  5.41E-06,  avg # of iterations =  1.1

     total cpu time spent up to now is       42.9 secs

     total energy              =     -90.99766413 Ry
     Harris-Foulkes estimate   =     -90.99782245 Ry
     estimated scf accuracy    <       0.00036326 Ry

     iteration #  6     ecut=    40.00 Ry     beta= 0.50
     Davidson diagonalization with overlap
     ethr =  1.14E-06,  avg # of iterations =  3.6

     total cpu time spent up to now is       44.5 secs

     total energy              =     -90.99771793 Ry
     Harris-Foulkes estimate   =     -90.99771921 Ry
     estimated scf accuracy    <       0.00000606 Ry

     iteration #  7     ecut=    40.00 Ry     beta= 0.50
     Davidson diagonalization with overlap
     ethr =  1.89E-08,  avg # of iterations =  3.1

     total cpu time spent up to now is       46.2 secs

     total energy              =     -90.99772052 Ry
     Harris-Foulkes estimate   =     -90.99772151 Ry
     estimated scf accuracy    <       0.00000207 Ry

     iteration #  8     ecut=    40.00 Ry     beta= 0.50
     Davidson diagonalization with overlap
     ethr =  6.45E-09,  avg # of iterations =  2.0

     total cpu time spent up to now is       47.5 secs

     End of self-consistent calculation

          k = 0.0000 0.0000 0.0000 (  2297 PWs)   bands (ev):

   -12.8348 -10.7750 -10.1345  -6.3193  -5.7672  -2.6508  -1.1050   0.7335
     0.8873   1.1060   2.2421   2.4928   3.8654   4.3891   5.1445   5.2751
    10.4943  11.1622  12.3830  13.4843

          k = 0.0001-0.0002 0.7823 (  2275 PWs)   bands (ev):

   -11.7161  -9.7187  -9.0718  -5.3691  -5.2071  -2.7209  -2.1283  -1.4091
    -0.9047   0.0465   1.5622   1.8100   2.2105   2.7289   4.3749   5.4680
     9.7569  10.8642  12.4784  13.4611

          k =-0.0001 0.0004-1.5646 (  2294 PWs)   bands (ev):

    -8.6757  -8.2751  -7.0631  -6.3842  -6.0939  -5.4634  -2.6101  -2.4940
    -2.0632  -0.4664   0.2944   0.8469   1.1182   4.6595   4.9877   6.6130
     7.5627   8.6009  10.8163  13.6407

          k =-0.0154 0.6322 0.0002 (  2301 PWs)   bands (ev):

   -12.3910 -10.9880  -9.9950  -8.4533  -3.5345  -2.9641  -0.6677   0.3719
     0.8622   0.8850   2.1110   3.0111   3.8718   4.2281   4.3223   5.9283
     9.2868  11.2497  13.3419  13.7565

          k =-0.0154 0.6320 0.7825 (  2279 PWs)   bands (ev):

   -11.2857  -9.9186  -8.9366  -7.4601  -3.4382  -2.6784  -1.8994  -1.0777
    -0.9235   0.1722   0.4982   1.4290   1.7564   3.2244   5.2317   5.5029
     9.1032  10.4579  13.2277  14.6451

          k =-0.0155 0.6326-1.5644 (  2276 PWs)   bands (ev):

    -8.3178  -7.9236  -7.1072  -6.7253  -5.7509  -5.3604  -4.3917  -4.0027
    -0.3294   0.0636   0.2970   0.8880   1.8579   4.3724   4.6350   6.1972
     7.6467   9.2103  10.3110  14.0785

          k =-0.0155 0.6324-0.7821 (  2279 PWs)   bands (ev):

   -11.2857  -9.9185  -8.9367  -7.4601  -3.4382  -2.6784  -1.8995  -1.0775
    -0.9234   0.1722   0.4982   1.4290   1.7564   3.2244   5.2316   5.5029
     9.1033  10.4578  13.2277  14.6453

          k =-0.5746 0.0200 0.0001 (  2276 PWs)   bands (ev):

   -12.6167 -11.7009  -8.4172  -7.9435  -4.9008  -3.6272  -0.5031   1.0341
     1.3608   1.6268   1.7420   3.1287   3.2861   3.9465   4.5659   5.0386
    11.2579  11.8131  12.8962  13.0722

          k =-0.5746 0.0198 0.7824 (  2281 PWs)   bands (ev):

   -11.4942 -10.6260  -7.4503  -6.9232  -4.4692  -3.1981  -2.0974  -1.9095
     0.0841   0.4815   0.8136   2.1948   2.2633   3.1700   3.9167   4.9664
    10.0211  11.1184  12.5912  13.1160

          k =-0.5747 0.0204-1.5645 (  2304 PWs)   bands (ev):

    -8.4985  -7.9818  -7.6590  -7.3868  -4.6819  -4.2580  -3.8746  -3.5079
    -1.2859  -0.0479  -0.0198  -0.0108   1.8239   4.8040   4.8804   7.1261
     7.1274   9.6036   9.6458  13.6639

          k =-0.5900 0.6522 0.0002 (  2289 PWs)   bands (ev):

   -12.0958 -11.6364  -9.8629  -7.5439  -5.5234  -1.6915  -0.9023   0.9789
     1.2116   1.8727   2.0821   2.8103   2.8757   3.1221   4.3880   5.9738
     9.9638  11.7489  13.1859  13.9099

          k =-0.5900 0.6520 0.7825 (  2284 PWs)   bands (ev):

   -10.9899 -10.5562  -8.8173  -6.5716  -4.7859  -2.4398  -2.2553  -0.9625
    -0.4910   0.3900   0.7205   1.9145   2.1546   2.9209   4.0625   5.4238
    10.0492  10.2073  12.7687  14.4050

          k =-0.5901 0.6527-1.5644 (  2286 PWs)   bands (ev):

    -8.0724  -7.7791  -7.4306  -7.2747  -5.7355  -5.1297  -3.7749  -3.5561
    -1.3631  -1.1974   0.8751   1.5641   2.1194   3.9437   5.2100   6.8034
     7.0507   9.1674  10.1954  14.1186

          k =-0.5901 0.6524-0.7821 (  2284 PWs)   bands (ev):

   -10.9898 -10.5562  -8.8174  -6.5717  -4.7859  -2.4398  -2.2554  -0.9624
    -0.4909   0.3899   0.7205   1.9145   2.1546   2.9208   4.0625   5.4238
    10.0492  10.2073  12.7687  14.4051

     the Fermi energy is     7.0211 ev

!    total energy              =     -90.99772082 Ry
     Harris-Foulkes estimate   =     -90.99772101 Ry
     estimated scf accuracy    <       0.00000023 Ry

     The total energy is the sum of the following terms:

     one-electron contribution =     -35.14861305 Ry
     hartree contribution      =      33.69216008 Ry
     xc contribution           =     -27.97903297 Ry
     ewald contribution        =     -61.56165485 Ry
     smearing contrib. (-TS)   =      -0.00058004 Ry

     convergence has been achieved in   8 iterations

     Forces acting on atoms (cartesian axes, Ry/au):

     atom    1 type  1   force =    -0.01233962    0.00399421    0.00003300
     atom    2 type  1   force =     0.01157513   -0.02155736   -0.00002927
     atom    3 type  1   force =    -0.01176544    0.02168070   -0.00002056
     atom    4 type  1   force =     0.01257106   -0.00402555    0.00001551
     atom    5 type  1   force =    -0.01205393    0.01249142   -0.00001770
     atom    6 type  1   force =     0.01194023   -0.01255911   -0.00001141
     atom    7 type  1   force =    -0.02469123    0.00830991    0.00001684
     atom    8 type  1   force =     0.02476381   -0.00833421    0.00001359

     Total force =     0.059268     Total SCF correction =     0.001369


     Computing stress (Cartesian axis) and pressure

          total   stress  (Ry/bohr**3)                   (kbar)     P=       -4.39
  -0.00003239  -0.00021394  -0.00000013           -4.76      -31.47       -0.02
  -0.00021394  -0.00001038  -0.00000015          -31.47       -1.53       -0.02
  -0.00000013  -0.00000015  -0.00004683           -0.02       -0.02       -6.89


     number of scf cycles    =   4
     number of bfgs steps    =   3

     enthalpy old            =     -90.9851979329 Ry
     enthalpy new            =     -90.9976889681 Ry

     CASE: enthalpy_new < enthalpy_old

     new trust radius        =       0.0399118014 bohr
     new conv_thr            =       0.0000002476 Ry

     new unit-cell volume =    467.93446 a.u.^3 (    69.34073 Ang^3 )
     density =      2.29896 g/cm^3

CELL_PARAMETERS (bohr)
  12.820073934   0.194729107  -0.000912067
   0.216347762   7.772191778   0.002126254
   0.000397728  -0.001235237   4.698233711

ATOMIC_POSITIONS (crystal)
C             0.4866522736        1.0293195010        0.4039744534
C             0.8464326155        0.7036114923        0.4040539014
C            -0.0847041237        0.3954300058        0.4040592390
C             0.2749718254        0.0695267945        0.4039909099
C             0.9568996910        0.2038046603        0.9040551884
C             0.8047786311        0.8952063310        0.9040410723
C             0.1735692841        0.0935635935        0.9040082835
C             0.5880708030        0.0053226216        0.9039849521



     Writing output data file ./pp.save/
     NEW-OLD atomic charge density approx. for the potential
     extrapolated charge   31.95354, renormalised to   32.00000

     total cpu time spent up to now is       47.6 secs

     Self-consistent Calculation

     iteration #  1     ecut=    40.00 Ry     beta= 0.50
     Davidson diagonalization with overlap
     ethr =  1.00E-06,  avg # of iterations =  8.6

     total cpu time spent up to now is       51.7 secs

     total energy              =     -91.00071416 Ry
     Harris-Foulkes estimate   =     -91.04579901 Ry
     estimated scf accuracy    <       0.00060977 Ry

     iteration #  2     ecut=    40.00 Ry     beta= 0.50
     Davidson diagonalization with overlap
     ethr =  1.91E-06,  avg # of iterations =  3.9

     total cpu time spent up to now is       53.7 secs

     total energy              =     -91.00076920 Ry
     Harris-Foulkes estimate   =     -91.00096325 Ry
     estimated scf accuracy    <       0.00049090 Ry

     iteration #  3     ecut=    40.00 Ry     beta= 0.50
     Davidson diagonalization with overlap
     ethr =  1.53E-06,  avg # of iterations =  2.5

     total cpu time spent up to now is       55.2 secs

     total energy              =     -91.00077807 Ry
     Harris-Foulkes estimate   =     -91.00100445 Ry
     estimated scf accuracy    <       0.00127511 Ry

     iteration #  4     ecut=    40.00 Ry     beta= 0.50
     Davidson diagonalization with overlap
     ethr =  1.53E-06,  avg # of iterations =  1.4

     total cpu time spent up to now is       56.4 secs

     total energy              =     -91.00089263 Ry
     Harris-Foulkes estimate   =     -91.00089791 Ry
     estimated scf accuracy    <       0.00003012 Ry

     iteration #  5     ecut=    40.00 Ry     beta= 0.50
     Davidson diagonalization with overlap
     ethr =  9.41E-08,  avg # of iterations =  2.0

     total cpu time spent up to now is       57.8 secs

     total energy              =     -91.00089724 Ry
     Harris-Foulkes estimate   =     -91.00089727 Ry
     estimated scf accuracy    <       0.00000232 Ry

     iteration #  6     ecut=    40.00 Ry     beta= 0.50
     Davidson diagonalization with overlap
     ethr =  7.24E-09,  avg # of iterations =  2.0

     total cpu time spent up to now is       59.5 secs

     total energy              =     -91.00089755 Ry
     Harris-Foulkes estimate   =     -91.00089763 Ry
     estimated scf accuracy    <       0.00000029 Ry

     iteration #  7     ecut=    40.00 Ry     beta= 0.50
     Davidson diagonalization with overlap
     ethr =  9.22E-10,  avg # of iterations =  2.0

     total cpu time spent up to now is       61.1 secs

     End of self-consistent calculation

          k = 0.0000 0.0000 0.0000 (  2297 PWs)   bands (ev):

   -12.8327 -10.7362 -10.0522  -6.3429  -5.8866  -2.6061  -1.1701   0.8843
     0.9790   1.0562   2.3027   2.6779   3.7699   4.3981   5.0522   5.3808
    10.4991  11.2074  12.3740  13.6032

          k = 0.0001-0.0002 0.7836 (  2275 PWs)   bands (ev):

   -11.7090  -9.6766  -8.9844  -5.3819  -5.3135  -2.6227  -2.1065  -1.3356
    -0.8384   0.0631   1.5079   1.8732   2.3001   2.6661   4.2814   5.4987
     9.7760  10.9117  12.5353  13.4351

          k =-0.0001 0.0004-1.5672 (  2294 PWs)   bands (ev):

    -8.6552  -8.2571  -7.0396  -6.2827  -6.0146  -5.3587  -2.5842  -2.4846
    -2.1438  -0.5607   0.2793   0.8143   1.1815   4.5930   5.0336   6.7007
     7.5871   8.6846  10.8603  13.6034

          k =-0.0096 0.6318 0.0002 (  2301 PWs)   bands (ev):

   -12.3617 -10.9628  -9.9494  -8.5066  -3.5574  -2.9411  -0.7114   0.4040
     0.7881   1.0666   2.2199   3.1154   3.7665   4.2560   4.4036   5.8553
     9.3145  11.2339  13.4042  13.8713

          k =-0.0095 0.6316 0.7838 (  2279 PWs)   bands (ev):

   -11.2505  -9.8912  -8.8868  -7.5078  -3.4172  -2.6350  -1.8272  -0.9972
    -0.8961   0.1582   0.4882   1.3918   1.8273   3.2038   5.2409   5.4587
     9.1447  10.4762  13.2189  14.6800

          k =-0.0097 0.6323-1.5670 (  2276 PWs)   bands (ev):

    -8.2779  -7.8662  -7.1229  -6.6408  -5.6800  -5.2884  -4.3884  -4.0303
    -0.3489   0.0390   0.2660   0.9680   1.8198   4.3028   4.6979   6.2762
     7.6703   9.2610  10.3507  14.0423

          k =-0.0097 0.6321-0.7834 (  2279 PWs)   bands (ev):

   -11.2505  -9.8912  -8.8868  -7.5078  -3.4172  -2.6350  -1.8272  -0.9971
    -0.8960   0.1582   0.4881   1.3918   1.8273   3.2038   5.2408   5.4587
     9.1448  10.4762  13.2189  14.6801

          k =-0.5746 0.0160 0.0001 (  2276 PWs)   bands (ev):

   -12.6418 -11.6041  -8.4181  -7.8938  -5.0214  -3.6787  -0.4622   1.2373
     1.4204   1.6646   1.7059   3.2081   3.4190   3.8304   4.4464   5.1450
    11.1668  11.8592  12.9472  13.2451

          k =-0.5745 0.0158 0.7836 (  2281 PWs)   bands (ev):

   -11.5158 -10.5236  -7.4481  -6.8695  -4.5686  -3.1757  -2.0678  -1.8141
     0.1565   0.5182   0.8532   2.1895   2.2469   3.1573   3.9468   4.9103
     9.9862  11.1907  12.6295  13.2001

          k =-0.5747 0.0164-1.5671 (  2304 PWs)   bands (ev):

    -8.4992  -8.0228  -7.5468  -7.2624  -4.6451  -4.2067  -3.8018  -3.4566
    -1.3729  -0.1215  -0.0652  -0.0512   1.8753   4.7168   4.9504   7.1903
     7.1942   9.6527   9.7355  13.6127

          k =-0.5842 0.6478 0.0002 (  2289 PWs)   bands (ev):

   -12.0916 -11.5574  -9.9008  -7.5187  -5.5418  -1.7067  -0.9815   1.1711
     1.2737   1.9779   2.0117   2.7775   2.8876   3.2030   4.4879   5.8611
     9.9587  11.7034  13.3283  13.9458

          k =-0.5841 0.6476 0.7838 (  2284 PWs)   bands (ev):

   -10.9797 -10.4739  -8.8524  -6.5398  -4.7978  -2.3896  -2.1447  -0.9531
    -0.4856   0.3609   0.7942   1.8610   2.2118   2.9075   4.1320   5.3390
    10.0688  10.2165  12.8120  14.4524

          k =-0.5843 0.6483-1.5670 (  2286 PWs)   bands (ev):

    -8.0576  -7.7229  -7.3137  -7.2713  -5.7123  -5.1202  -3.7159  -3.5142
    -1.3718  -1.2256   0.8181   1.5829   2.1082   3.9360   5.2069   6.8617
     7.1119   9.2339  10.2437  14.1197

          k =-0.5842 0.6480-0.7834 (  2284 PWs)   bands (ev):

   -10.9797 -10.4739  -8.8524  -6.5399  -4.7978  -2.3896  -2.1448  -0.9531
    -0.4855   0.3609   0.7942   1.8610   2.2118   2.9074   4.1319   5.3389
    10.0688  10.2165  12.8120  14.4524

     the Fermi energy is     7.0823 ev

!    total energy              =     -91.00089759 Ry
     Harris-Foulkes estimate   =     -91.00089760 Ry
     estimated scf accuracy    <       0.00000003 Ry

     The total energy is the sum of the following terms:

     one-electron contribution =     -35.01946009 Ry
     hartree contribution      =      33.64554874 Ry
     xc contribution           =     -27.97514547 Ry
     ewald contribution        =     -61.65128963 Ry
     smearing contrib. (-TS)   =      -0.00055114 Ry

     convergence has been achieved in   7 iterations

     Forces acting on atoms (cartesian axes, Ry/au):

     atom    1 type  1   force =     0.00077776   -0.00236402    0.00005328
     atom    2 type  1   force =    -0.00370375    0.01562364   -0.00001889
     atom    3 type  1   force =     0.00357870   -0.01567683   -0.00002037
     atom    4 type  1   force =    -0.00060933    0.00234101    0.00004901
     atom    5 type  1   force =    -0.00479206    0.00814721   -0.00001639
     atom    6 type  1   force =     0.00476089   -0.00809472    0.00000003
     atom    7 type  1   force =    -0.00721770    0.01125604   -0.00002804
     atom    8 type  1   force =     0.00720548   -0.01123233   -0.00001863

     Total force =     0.032601     Total SCF correction =     0.000333


     Computing stress (Cartesian axis) and pressure

          total   stress  (Ry/bohr**3)                   (kbar)     P=       -6.88
  -0.00019949  -0.00016243  -0.00000006          -29.35      -23.89       -0.01
  -0.00016243   0.00008066  -0.00000000          -23.89       11.86       -0.00
  -0.00000006  -0.00000000  -0.00002153           -0.01       -0.00       -3.17


     number of scf cycles    =   5
     number of bfgs steps    =   4

     enthalpy old            =     -90.9976889681 Ry
     enthalpy new            =     -91.0008657845 Ry

     CASE: enthalpy_new < enthalpy_old

     new trust radius        =       0.0885794399 bohr
     new conv_thr            =       0.0000001568 Ry

     new unit-cell volume =    463.33453 a.u.^3 (    68.65909 Ang^3 )
     density =      2.32179 g/cm^3

CELL_PARAMETERS (bohr)
  12.676588060  -0.062001465  -0.001057249
   0.093113645   7.798694833   0.002046442
   0.000366196  -0.001288499   4.686460593

ATOMIC_POSITIONS (crystal)
C             0.4876171396        1.0294518872        0.4039944566
C             0.8471762970        0.7039177714        0.4040388814
C            -0.0854785600        0.3951417654        0.4040439916
C             0.2740496505        0.0693774693        0.4040081062
C             0.9551648066        0.2081640321        0.9040381722
C             0.8064839360        0.8908532960        0.9040368391
C             0.1704056930        0.0970532537        0.9040110443
C             0.5912520373        0.0018255248        0.9039965085



     Writing output data file ./pp.save/
     NEW-OLD atomic charge density approx. for the potential
     extrapolated charge   31.68231, renormalised to   32.00000

     total cpu time spent up to now is       61.1 secs

     Self-consistent Calculation

     iteration #  1     ecut=    40.00 Ry     beta= 0.50
     Davidson diagonalization with overlap
     ethr =  1.00E-06,  avg # of iterations = 11.0

     total cpu time spent up to now is       67.3 secs

     total energy              =     -90.99916241 Ry
     Harris-Foulkes estimate   =     -91.30629047 Ry
     estimated scf accuracy    <       0.00383030 Ry

     iteration #  2     ecut=    40.00 Ry     beta= 0.50
     Davidson diagonalization with overlap
     ethr =  1.20E-05,  avg # of iterations =  4.9

     total cpu time spent up to now is       70.5 secs

     total energy              =     -91.00291710 Ry
     Harris-Foulkes estimate   =     -91.00490491 Ry
     estimated scf accuracy    <       0.00570985 Ry

     iteration #  3     ecut=    40.00 Ry     beta= 0.50
     Davidson diagonalization with overlap
     ethr =  1.20E-05,  avg # of iterations =  2.9

     total cpu time spent up to now is       72.5 secs

     total energy              =     -91.00320358 Ry
     Harris-Foulkes estimate   =     -91.00344990 Ry
     estimated scf accuracy    <       0.00077792 Ry

     iteration #  4     ecut=    40.00 Ry     beta= 0.50
     Davidson diagonalization with overlap
     ethr =  2.43E-06,  avg # of iterations =  3.6

     total cpu time spent up to now is       74.7 secs

     total energy              =     -91.00316259 Ry
     Harris-Foulkes estimate   =     -91.00327551 Ry
     estimated scf accuracy    <       0.00036471 Ry

     iteration #  5     ecut=    40.00 Ry     beta= 0.50
     Davidson diagonalization with overlap
     ethr =  1.14E-06,  avg # of iterations =  2.4

     total cpu time spent up to now is       76.5 secs

     total energy              =     -91.00317091 Ry
     Harris-Foulkes estimate   =     -91.00327392 Ry
     estimated scf accuracy    <       0.00052958 Ry

     iteration #  6     ecut=    40.00 Ry     beta= 0.50
     Davidson diagonalization with overlap
     ethr =  1.14E-06,  avg # of iterations =  1.9

     total cpu time spent up to now is       78.1 secs

     total energy              =     -91.00322234 Ry
     Harris-Foulkes estimate   =     -91.00322294 Ry
     estimated scf accuracy    <       0.00000449 Ry

     iteration #  7     ecut=    40.00 Ry     beta= 0.50
     Davidson diagonalization with overlap
     ethr =  1.40E-08,  avg # of iterations =  3.1

     total cpu time spent up to now is       80.6 secs

     total energy              =     -91.00322319 Ry
     Harris-Foulkes estimate   =     -91.00322461 Ry
     estimated scf accuracy    <       0.00000375 Ry

     iteration #  8     ecut=    40.00 Ry     beta= 0.50
     Davidson diagonalization with overlap
     ethr =  1.17E-08,  avg # of iterations =  2.0

     total cpu time spent up to now is       82.4 secs

     total energy              =     -91.00322357 Ry
     Harris-Foulkes estimate   =     -91.00322365 Ry
     estimated scf accuracy    <       0.00000018 Ry

     iteration #  9     ecut=    40.00 Ry     beta= 0.50
     Davidson diagonalization with overlap
     ethr =  5.59E-10,  avg # of iterations =  3.0

     total cpu time spent up to now is       84.8 secs

     End of self-consistent calculation

          k = 0.0000 0.0000 0.0000 (  2297 PWs)   bands (ev):

   -12.8365 -10.5653  -9.9388  -6.3722  -5.8648  -2.4396  -1.2175   1.0494
     1.0532   1.1806   2.4448   2.9240   3.8411   4.5430   5.1112   5.3721
    10.6126  11.3809  12.2995  13.7590

          k = 0.0001-0.0002 0.7856 (  2275 PWs)   bands (ev):

   -11.7062  -9.5001  -8.8654  -5.4027  -5.2678  -2.4792  -1.9917  -1.2559
    -0.6889   0.1367   1.5150   1.8877   2.4859   2.7143   4.3632   5.6793
     9.9065  10.8932  12.7342  13.5185

          k =-0.0001 0.0004-1.5711 (  2294 PWs)   bands (ev):

    -8.6833  -8.1680  -6.8406  -6.1533  -5.8249  -5.2113  -2.5808  -2.4903
    -2.0555  -0.6387   0.3987   0.7540   1.3362   4.7279   5.2067   6.8962
     7.7458   8.7270  10.9271  13.6162

          k = 0.0031 0.6294 0.0002 (  2301 PWs)   bands (ev):

   -12.3510 -10.8245  -9.8739  -8.4859  -3.4607  -2.7828  -0.7646   0.4829
     0.8710   1.2914   2.3698   3.2682   3.7228   4.4243   4.4692   5.9697
     9.4392  11.2168  13.5932  14.0625

          k = 0.0031 0.6292 0.7857 (  2279 PWs)   bands (ev):

   -11.2319  -9.7475  -8.8084  -7.4726  -3.3163  -2.4541  -1.7059  -0.8934
    -0.8111   0.2197   0.4539   1.4360   2.0144   3.2075   5.3941   5.6284
     9.2940  10.4225  13.3280  14.8241

          k = 0.0029 0.6298-1.5710 (  2276 PWs)   bands (ev):

    -8.3006  -7.7407  -6.9433  -6.5106  -5.5360  -5.2236  -4.3149  -4.0324
    -0.2450   0.0693   0.3834   1.1460   1.6897   4.4176   4.8842   6.4694
     7.8298   9.3375  10.3780  14.1205

          k = 0.0030 0.6296-0.7854 (  2279 PWs)   bands (ev):

   -11.2319  -9.7475  -8.8084  -7.4726  -3.3163  -2.4542  -1.7059  -0.8935
    -0.8110   0.2196   0.4538   1.4360   2.0144   3.2076   5.3941   5.6284
     9.2940  10.4225  13.3279  14.8240

          k =-0.5808 0.0069 0.0000 (  2276 PWs)   bands (ev):

   -12.6725 -11.4308  -8.2687  -7.8362  -5.0058  -3.7630  -0.3893   1.4537
     1.5348   1.7418   1.9318   3.4114   3.6708   3.8526   4.4375   5.1116
    11.1209  12.0627  13.0234  13.5978

          k =-0.5807 0.0067 0.7856 (  2281 PWs)   bands (ev):

   -11.5413 -10.3428  -7.2907  -6.8107  -4.5252  -3.1700  -2.0603  -1.6431
     0.3461   0.5947   0.9024   2.2437   2.3042   3.2925   4.1546   4.9326
    10.0518  11.2285  12.7885  13.4431

          k =-0.5809 0.0073-1.5711 (  2304 PWs)   bands (ev):

    -8.5554  -7.9622  -7.3347  -7.0758  -4.4541  -4.0334  -3.7280  -3.4367
    -1.2957  -0.2212  -0.1759  -0.0050   2.0149   4.8541   5.1235   7.3575
     7.4103   9.7189   9.7970  13.6029

          k =-0.5777 0.6363 0.0002 (  2289 PWs)   bands (ev):

   -12.1040 -11.4209  -9.8468  -7.4016  -5.4751  -1.7076  -0.9475   1.4424
     1.4831   2.0220   2.0589   2.8032   3.0879   3.3629   4.5275   5.9294
     9.9014  11.8151  13.6368  14.0550

          k =-0.5777 0.6361 0.7858 (  2284 PWs)   bands (ev):

   -10.9841 -10.3332  -8.7899  -6.4188  -4.7061  -2.3703  -1.9397  -0.8675
    -0.4510   0.3822   0.9397   1.8947   2.3426   2.9801   4.3288   5.4414
    10.0006  10.3526  13.0047  14.6789

          k =-0.5779 0.6367-1.5709 (  2286 PWs)   bands (ev):

    -8.1200  -7.5641  -7.1406  -7.1380  -5.6510  -5.0587  -3.5667  -3.4136
    -1.2513  -1.2407   0.8913   1.5709   2.1229   4.0606   5.4001   7.0413
     7.3150   9.4085  10.1712  14.2521

          k =-0.5778 0.6365-0.7853 (  2284 PWs)   bands (ev):

   -10.9841 -10.3332  -8.7899  -6.4188  -4.7061  -2.3703  -1.9397  -0.8675
    -0.4510   0.3821   0.9396   1.8947   2.3427   2.9801   4.3288   5.4413
    10.0006  10.3525  13.0047  14.6787

     the Fermi energy is     7.2742 ev

!    total energy              =     -91.00322358 Ry
     Harris-Foulkes estimate   =     -91.00322364 Ry
     estimated scf accuracy    <       0.00000007 Ry

     The total energy is the sum of the following terms:

     one-electron contribution =     -34.49020650 Ry
     hartree contribution      =      33.49820029 Ry
     xc contribution           =     -27.99281177 Ry
     ewald contribution        =     -62.01792178 Ry
     smearing contrib. (-TS)   =      -0.00048383 Ry

     convergence has been achieved in   9 iterations

     Forces acting on atoms (cartesian axes, Ry/au):

     atom    1 type  1   force =     0.00972056   -0.01190845    0.00000859
     atom    2 type  1   force =     0.00501082   -0.02382972   -0.00000609
     atom    3 type  1   force =    -0.00506182    0.02369665   -0.00000577
     atom    4 type  1   force =    -0.00990212    0.01197726    0.00000204
     atom    5 type  1   force =     0.00870086   -0.00099565   -0.00000498
     atom    6 type  1   force =    -0.00843154    0.00100260   -0.00001325
     atom    7 type  1   force =     0.02230977    0.01385801    0.00000189
     atom    8 type  1   force =    -0.02234655   -0.01380071    0.00001759

     Total force =     0.056447     Total SCF correction =     0.000729


     Computing stress (Cartesian axis) and pressure

          total   stress  (Ry/bohr**3)                   (kbar)     P=       -1.67
  -0.00011290   0.00002738   0.00000007          -16.61        4.03        0.01
   0.00002738  -0.00002355   0.00000010            4.03       -3.46        0.01
   0.00000007   0.00000010   0.00010245            0.01        0.01       15.07


     number of scf cycles    =   6
     number of bfgs steps    =   5

     enthalpy old            =     -91.0008657845 Ry
     enthalpy new            =     -91.0031920862 Ry

     CASE: enthalpy_new < enthalpy_old

     new trust radius        =       0.0255017956 bohr
     new conv_thr            =       0.0000002326 Ry

     new unit-cell volume =    461.88811 a.u.^3 (    68.44476 Ang^3 )
     density =      2.32906 g/cm^3

CELL_PARAMETERS (bohr)
  12.612581294  -0.109531626  -0.001062880
   0.068676181   7.803815063   0.002051726
   0.000364364  -0.001289995   4.692373917

ATOMIC_POSITIONS (crystal)
C             0.4885052053        1.0280570511        0.4040014761
C             0.8475792360        0.7019795604        0.4040361522
C            -0.0858895654        0.3970676860        0.4040383612
C             0.2731615716        0.0707770001        0.4040118708
C             0.9552329381        0.2089187301        0.9040337178
C             0.8064224800        0.8901009548        0.9040335372
C             0.1708499823        0.0991682777        0.9040104033
C             0.5908091522       -0.0002842601        0.9040024814



     Writing output data file ./pp.save/
     NEW-OLD atomic charge density approx. for the potential
     extrapolated charge   31.89979, renormalised to   32.00000

     total cpu time spent up to now is       84.9 secs

     Self-consistent Calculation

     iteration #  1     ecut=    40.00 Ry     beta= 0.50
     Davidson diagonalization with overlap
     ethr =  1.00E-06,  avg # of iterations =  8.2

     total cpu time spent up to now is       90.7 secs

     total energy              =     -91.00400602 Ry
     Harris-Foulkes estimate   =     -91.09916586 Ry
     estimated scf accuracy    <       0.00074682 Ry

     iteration #  2     ecut=    40.00 Ry     beta= 0.50
     Davidson diagonalization with overlap
     ethr =  2.33E-06,  avg # of iterations =  4.9

     total cpu time spent up to now is       94.3 secs

     total energy              =     -91.00445511 Ry
     Harris-Foulkes estimate   =     -91.00468703 Ry
     estimated scf accuracy    <       0.00056657 Ry

     iteration #  3     ecut=    40.00 Ry     beta= 0.50
     Davidson diagonalization with overlap
     ethr =  1.77E-06,  avg # of iterations =  2.9

     total cpu time spent up to now is       96.6 secs

     total energy              =     -91.00450436 Ry
     Harris-Foulkes estimate   =     -91.00454194 Ry
     estimated scf accuracy    <       0.00010047 Ry

     iteration #  4     ecut=    40.00 Ry     beta= 0.50
     Davidson diagonalization with overlap
     ethr =  3.14E-07,  avg # of iterations =  2.0

     total cpu time spent up to now is       98.6 secs

     total energy              =     -91.00450045 Ry
     Harris-Foulkes estimate   =     -91.00455741 Ry
     estimated scf accuracy    <       0.00032645 Ry

     iteration #  5     ecut=    40.00 Ry     beta= 0.50
     Davidson diagonalization with overlap
     ethr =  3.14E-07,  avg # of iterations =  1.1

     total cpu time spent up to now is      100.2 secs

     total energy              =     -91.00452672 Ry
     Harris-Foulkes estimate   =     -91.00452776 Ry
     estimated scf accuracy    <       0.00000456 Ry

     iteration #  6     ecut=    40.00 Ry     beta= 0.50
     Davidson diagonalization with overlap
     ethr =  1.43E-08,  avg # of iterations =  2.8

     total cpu time spent up to now is      102.8 secs

     total energy              =     -91.00452770 Ry
     Harris-Foulkes estimate   =     -91.00452779 Ry
     estimated scf accuracy    <       0.00000064 Ry

     iteration #  7     ecut=    40.00 Ry     beta= 0.50
     Davidson diagonalization with overlap
     ethr =  1.99E-09,  avg # of iterations =  1.2

     total cpu time spent up to now is      104.4 secs

     End of self-consistent calculation

          k = 0.0000 0.0000 0.0000 (  2297 PWs)   bands (ev):

   -12.7993 -10.5254  -9.9092  -6.2953  -5.8966  -2.3505  -1.1567   1.0283
     1.1012   1.2064   2.4597   2.8503   3.8286   4.6222   5.1053   5.4930
    10.7130  11.4161  12.3760  13.7598

          k = 0.0001-0.0002 0.7846 (  2275 PWs)   bands (ev):

   -11.6724  -9.4646  -8.8405  -5.3256  -5.3091  -2.4764  -1.9087  -1.2456
    -0.6514   0.1484   1.5372   1.9750   2.5244   2.7628   4.3457   5.6910
     9.9853  10.9938  12.7649  13.5484

          k =-0.0001 0.0004-1.5691 (  2294 PWs)   bands (ev):

    -8.6571  -8.1542  -6.8202  -6.1438  -5.8093  -5.2020  -2.5084  -2.4062
    -2.0648  -0.6368   0.4868   0.8018   1.3881   4.7082   5.2535   6.9128
     7.7780   8.7656  10.9940  13.6490

          k = 0.0055 0.6290 0.0002 (  2301 PWs)   bands (ev):

   -12.3167 -10.7922  -9.8149  -8.4804  -3.4154  -2.7059  -0.7141   0.4810
     0.9110   1.2434   2.3725   3.2533   3.7773   4.4939   4.5025   5.9803
     9.5563  11.3094  13.6265  14.0678

          k = 0.0055 0.6288 0.7847 (  2279 PWs)   bands (ev):

   -11.2014  -9.7194  -8.7531  -7.4737  -3.2946  -2.4340  -1.6471  -0.8856
    -0.7724   0.2053   0.5288   1.4554   2.0429   3.2966   5.4055   5.6269
     9.3937  10.5068  13.3777  14.8511

          k = 0.0053 0.6294-1.5690 (  2276 PWs)   bands (ev):

    -8.2810  -7.7285  -6.9413  -6.4844  -5.5139  -5.1647  -4.3031  -4.0097
    -0.1908   0.0994   0.4510   1.2052   1.7458   4.3997   4.9286   6.4800
     7.8730   9.3732  10.4480  14.1505

          k = 0.0054 0.6292-0.7844 (  2279 PWs)   bands (ev):

   -11.2014  -9.7194  -8.7530  -7.4737  -3.2946  -2.4340  -1.6471  -0.8856
    -0.7724   0.2053   0.5287   1.4554   2.0429   3.2966   5.4055   5.6269
     9.3937  10.5068  13.3777  14.8510

          k =-0.5837 0.0051 0.0000 (  2276 PWs)   bands (ev):

   -12.6278 -11.4102  -8.2655  -7.7416  -5.0137  -3.7073  -0.3376   1.4606
     1.4914   1.8505   1.9841   3.4201   3.6013   3.8499   4.4562   5.2577
    11.2035  12.1152  13.1278  13.6899

          k =-0.5837 0.0049 0.7846 (  2281 PWs)   bands (ev):

   -11.4997 -10.3267  -7.2972  -6.7157  -4.5448  -3.1264  -2.0091  -1.6673
     0.3256   0.6351   1.0148   2.3065   2.3601   3.3210   4.1581   4.9228
    10.1389  11.3111  12.8548  13.4825

          k =-0.5839 0.0056-1.5691 (  2304 PWs)   bands (ev):

    -8.5204  -7.9462  -7.3172  -7.0847  -4.4900  -4.0247  -3.6494  -3.3245
    -1.2888  -0.2200  -0.1191   0.0785   2.0654   4.8374   5.1663   7.3820
     7.4308   9.7712   9.8494  13.6330

          k =-0.5783 0.6341 0.0002 (  2289 PWs)   bands (ev):

   -12.0596 -11.3957  -9.8212  -7.3423  -5.4412  -1.6717  -0.9269   1.3846
     1.5391   2.0685   2.0908   2.8743   3.1067   3.3536   4.6041   5.9048
    10.0036  11.9319  13.7050  14.0819

          k =-0.5782 0.6339 0.7848 (  2284 PWs)   bands (ev):

   -10.9430 -10.3123  -8.7690  -6.3655  -4.6828  -2.3445  -1.9605  -0.8548
    -0.4171   0.4313   0.9564   1.9746   2.4099   3.0329   4.3467   5.4192
    10.1039  10.4322  13.0450  14.7587

          k =-0.5784 0.6345-1.5689 (  2286 PWs)   bands (ev):

    -8.0888  -7.5546  -7.1420  -7.1233  -5.6321  -5.0158  -3.5385  -3.3590
    -1.2170  -1.2047   0.9499   1.6164   2.1849   4.0561   5.4350   7.0668
     7.3392   9.4124  10.2789  14.2748

          k =-0.5783 0.6343-0.7844 (  2284 PWs)   bands (ev):

   -10.9430 -10.3123  -8.7690  -6.3655  -4.6828  -2.3445  -1.9604  -0.8549
    -0.4171   0.4313   0.9563   1.9747   2.4099   3.0330   4.3467   5.4192
    10.1039  10.4322  13.0450  14.7586

     the Fermi energy is     7.2985 ev

!    total energy              =     -91.00452773 Ry
     Harris-Foulkes estimate   =     -91.00452776 Ry
     estimated scf accuracy    <       0.00000007 Ry

     The total energy is the sum of the following terms:

     one-electron contribution =     -34.10140721 Ry
     hartree contribution      =      33.34931542 Ry
     xc contribution           =     -28.00742778 Ry
     ewald contribution        =     -62.24451291 Ry
     smearing contrib. (-TS)   =      -0.00049524 Ry

     convergence has been achieved in   7 iterations

     Forces acting on atoms (cartesian axes, Ry/au):

     atom    1 type  1   force =    -0.01081925   -0.00854071    0.00000384
     atom    2 type  1   force =    -0.00573934    0.00903110    0.00000040
     atom    3 type  1   force =     0.00571728   -0.00912877   -0.00000819
     atom    4 type  1   force =     0.01067526    0.00859259   -0.00001587
     atom    5 type  1   force =     0.00352925    0.00408785   -0.00000323
     atom    6 type  1   force =    -0.00334951   -0.00411025   -0.00000675
     atom    7 type  1   force =     0.01177590    0.01617001    0.00001675
     atom    8 type  1   force =    -0.01178958   -0.01610182    0.00001306

     Total force =     0.038262     Total SCF correction =     0.000515


     Computing stress (Cartesian axis) and pressure

          total   stress  (Ry/bohr**3)                   (kbar)     P=        5.84
   0.00001337  -0.00001550   0.00000003            1.97       -2.28        0.00
  -0.00001550   0.00005221   0.00000013           -2.28        7.68        0.02
   0.00000003   0.00000013   0.00005355            0.00        0.02        7.88


     number of scf cycles    =   7
     number of bfgs steps    =   6

     enthalpy old            =     -91.0031920862 Ry
     enthalpy new            =     -91.0044963280 Ry

     CASE: enthalpy_new < enthalpy_old

     new trust radius        =       0.0345455507 bohr
     new conv_thr            =       0.0000001304 Ry

     new unit-cell volume =    462.74302 a.u.^3 (    68.57144 Ang^3 )
     density =      2.32475 g/cm^3

CELL_PARAMETERS (bohr)
  12.588887904  -0.148598687  -0.001048100
   0.048970375   7.815029895   0.002089746
   0.000368295  -0.001274484   4.703159484

ATOMIC_POSITIONS (crystal)
C             0.4882255262        1.0258166499        0.4040086316
C             0.8475332315        0.7012405794        0.4040335017
C            -0.0858507421        0.3977838603        0.4040326941
C             0.2734299246        0.0730310116        0.4040092651
C             0.9554497205        0.2101596027        0.9040293992
C             0.8062255983        0.8888541280        0.9040295706
C             0.1718922527        0.1032616126        0.9040130381
C             0.5897654883       -0.0043624444        0.9040118996



     Writing output data file ./pp.save/
     NEW-OLD atomic charge density approx. for the potential
     extrapolated charge   32.05912, renormalised to   32.00000

     total cpu time spent up to now is      104.6 secs

     Self-consistent Calculation

     iteration #  1     ecut=    40.00 Ry     beta= 0.50
     Davidson diagonalization with overlap
     ethr =  1.00E-06,  avg # of iterations =  6.6

     total cpu time spent up to now is      110.2 secs

     total energy              =     -91.00581974 Ry
     Harris-Foulkes estimate   =     -90.95118255 Ry
     estimated scf accuracy    <       0.00064693 Ry

     iteration #  2     ecut=    40.00 Ry     beta= 0.50
     Davidson diagonalization with overlap
     ethr =  2.02E-06,  avg # of iterations =  4.3

     total cpu time spent up to now is      113.8 secs

     total energy              =     -91.00603426 Ry
     Harris-Foulkes estimate   =     -91.00616603 Ry
     estimated scf accuracy    <       0.00030502 Ry

     iteration #  3     ecut=    40.00 Ry     beta= 0.50
     Davidson diagonalization with overlap
     ethr =  9.53E-07,  avg # of iterations =  2.6

     total cpu time spent up to now is      116.3 secs

     total energy              =     -91.00604708 Ry
     Harris-Foulkes estimate   =     -91.00610956 Ry
     estimated scf accuracy    <       0.00021654 Ry

     iteration #  4     ecut=    40.00 Ry     beta= 0.50
     Davidson diagonalization with overlap
     ethr =  6.77E-07,  avg # of iterations =  1.3

     total cpu time spent up to now is      118.2 secs

     total energy              =     -91.00607569 Ry
     Harris-Foulkes estimate   =     -91.00610798 Ry
     estimated scf accuracy    <       0.00019260 Ry

     iteration #  5     ecut=    40.00 Ry     beta= 0.50
     Davidson diagonalization with overlap
     ethr =  6.02E-07,  avg # of iterations =  1.0

     total cpu time spent up to now is      120.0 secs

     total energy              =     -91.00609200 Ry
     Harris-Foulkes estimate   =     -91.00609177 Ry
     estimated scf accuracy    <       0.00000171 Ry

     iteration #  6     ecut=    40.00 Ry     beta= 0.50
     Davidson diagonalization with overlap
     ethr =  5.34E-09,  avg # of iterations =  3.0

     total cpu time spent up to now is      123.0 secs

     total energy              =     -91.00609242 Ry
     Harris-Foulkes estimate   =     -91.00609248 Ry
     estimated scf accuracy    <       0.00000044 Ry

     iteration #  7     ecut=    40.00 Ry     beta= 0.50
     Davidson diagonalization with overlap
     ethr =  1.38E-09,  avg # of iterations =  1.3

     total cpu time spent up to now is      125.0 secs

     End of self-consistent calculation

          k = 0.0000 0.0000 0.0000 (  2297 PWs)   bands (ev):

   -12.7757 -10.5452  -9.8996  -6.2784  -5.8954  -2.3472  -1.1200   0.9696
     1.1303   1.1790   2.4105   2.7850   3.8185   4.5911   5.1036   5.4662
    10.6724  11.3983  12.3782  13.6698

          k = 0.0001-0.0002 0.7828 (  2275 PWs)   bands (ev):

   -11.6545  -9.4897  -8.8365  -5.3216  -5.3129  -2.5078  -1.9206  -1.2575
    -0.6701   0.1533   1.5536   1.9571   2.4959   2.7600   4.3287   5.6579
     9.9471  10.9883  12.7381  13.5490

          k =-0.0001 0.0004-1.5656 (  2294 PWs)   bands (ev):

    -8.6475  -8.1667  -6.8685  -6.1585  -5.8368  -5.2102  -2.5075  -2.4062
    -2.0687  -0.6286   0.4831   0.8339   1.3823   4.6825   5.2055   6.8733
     7.7744   8.7556  10.9719  13.5879

          k = 0.0074 0.6281 0.0002 (  2301 PWs)   bands (ev):

   -12.2992 -10.7962  -9.8091  -8.4700  -3.4115  -2.7031  -0.6819   0.4636
     0.9187   1.1704   2.3234   3.2039   3.7971   4.4600   4.4755   5.9696
     9.5541  11.2941  13.6001  13.9835

          k = 0.0075 0.6279 0.7829 (  2279 PWs)   bands (ev):

   -11.1899  -9.7288  -8.7522  -7.4702  -3.3150  -2.4639  -1.6541  -0.9063
    -0.7830   0.1940   0.5448   1.4519   2.0137   3.2997   5.3851   5.6073
     9.3683  10.4960  13.3999  14.8105

          k = 0.0073 0.6285-1.5654 (  2276 PWs)   bands (ev):

    -8.2762  -7.7528  -6.9800  -6.4976  -5.5332  -5.1631  -4.3075  -4.0076
    -0.1996   0.1165   0.4464   1.1948   1.7673   4.3790   4.8802   6.4397
     7.8740   9.3629  10.4398  14.0718

          k = 0.0074 0.6283-0.7826 (  2279 PWs)   bands (ev):

   -11.1899  -9.7288  -8.7522  -7.4702  -3.3150  -2.4639  -1.6541  -0.9063
    -0.7830   0.1940   0.5448   1.4519   2.0138   3.2997   5.3851   5.6073
     9.3683  10.4960  13.3999  14.8105

          k =-0.5848 0.0037 0.0000 (  2276 PWs)   bands (ev):

   -12.5951 -11.4308  -8.2661  -7.7385  -4.9937  -3.6858  -0.3197   1.3722
     1.4665   1.8656   1.9394   3.3774   3.5376   3.8655   4.4756   5.2340
    11.2428  12.1068  13.0829  13.6247

          k =-0.5848 0.0035 0.7828 (  2281 PWs)   bands (ev):

   -11.4724 -10.3530  -7.3045  -6.7172  -4.5412  -3.1368  -2.0032  -1.7042
     0.2878   0.6468   1.0026   2.2980   2.3657   3.2875   4.1308   4.9098
    10.1578  11.2848  12.8311  13.4621

          k =-0.5850 0.0041-1.5655 (  2304 PWs)   bands (ev):

    -8.5032  -7.9475  -7.3698  -7.1177  -4.5118  -4.0365  -3.6630  -3.3249
    -1.2797  -0.2019  -0.0910   0.0697   2.0651   4.8138   5.1187   7.3474
     7.4025   9.7358   9.8416  13.5818

          k =-0.5774 0.6317 0.0002 (  2289 PWs)   bands (ev):

   -12.0304 -11.4087  -9.8208  -7.3268  -5.4360  -1.6567  -0.9180   1.3030
     1.5011   2.0313   2.1113   2.8846   3.0964   3.3006   4.5773   5.9000
    10.0191  11.9545  13.6384  14.0180

          k =-0.5774 0.6315 0.7830 (  2284 PWs)   bands (ev):

   -10.9197 -10.3306  -8.7742  -6.3552  -4.6924  -2.3586  -2.0068  -0.8728
    -0.4119   0.4328   0.9330   1.9805   2.3925   3.0210   4.3329   5.4022
    10.0974  10.4240  13.0212  14.7663

          k =-0.5776 0.6321-1.5653 (  2286 PWs)   bands (ev):

    -8.0737  -7.5794  -7.1710  -7.1597  -5.6349  -5.0260  -3.5430  -3.3592
    -1.2143  -1.2045   0.9454   1.6272   2.1942   4.0275   5.3923   7.0429
     7.3065   9.4002  10.2690  14.2084

          k =-0.5775 0.6319-0.7826 (  2284 PWs)   bands (ev):

   -10.9197 -10.3306  -8.7741  -6.3552  -4.6924  -2.3586  -2.0067  -0.8728
    -0.4119   0.4328   0.9330   1.9805   2.3925   3.0210   4.3329   5.4022
    10.0974  10.4240  13.0212  14.7663

     the Fermi energy is     7.2688 ev

!    total energy              =     -91.00609245 Ry
     Harris-Foulkes estimate   =     -91.00609248 Ry
     estimated scf accuracy    <       0.00000005 Ry

     The total energy is the sum of the following terms:

     one-electron contribution =     -33.72955614 Ry
     hartree contribution      =      33.14130630 Ry
     xc contribution           =     -27.99337012 Ry
     ewald contribution        =     -62.42394279 Ry
[...]
  -0.00005531   0.00003531  -0.00000484           -8.14        5.19       -0.71
   0.00003531  -0.00002895   0.00000281            5.19       -4.26        0.41
  -0.00000484   0.00000281   0.00005938           -0.71        0.41        8.74


     number of scf cycles    =  39
     number of bfgs steps    =  32

     enthalpy old            =     -91.1529571877 Ry
     enthalpy new            =     -91.1580513599 Ry

     CASE: enthalpy_new < enthalpy_old

     new trust radius        =       0.1659943539 bohr
     new conv_thr            =       0.0000002090 Ry

     new unit-cell volume =    551.25654 a.u.^3 (    81.68779 Ang^3 )
     density =      1.95148 g/cm^3

CELL_PARAMETERS (bohr)
  14.038249557  -0.082306210  -0.003580225
   0.289010230   8.425819628   0.002422223
  -0.001228000  -0.001685897   4.659521184

ATOMIC_POSITIONS (crystal)
C             0.4676380143        0.9749316710        0.4041177515
C             0.8001795414        0.6413847220        0.4039314668
C            -0.0385081082        0.4577206220        0.4042314742
C             0.2940882928        0.1240346112        0.4037993412
C             1.0423821714        0.3670409662        0.9039416248
C             0.7192840303        0.7318263463        0.9042014893
C             0.2088911581        0.1985854918        0.9042872435
C             0.5527158999       -0.0997394305        0.9036576085



     Writing output data file ./pp.save/
     NEW-OLD atomic charge density approx. for the potential
     extrapolated charge   32.51255, renormalised to   32.00000

     total cpu time spent up to now is     2330.6 secs

     Self-consistent Calculation

     iteration #  1     ecut=    40.00 Ry     beta= 0.50
     Davidson diagonalization with overlap
     ethr =  1.00E-06,  avg # of iterations =  8.2

     total cpu time spent up to now is     2367.4 secs

     total energy              =     -91.15212613 Ry
     Harris-Foulkes estimate   =     -90.55884248 Ry
     estimated scf accuracy    <       0.02338800 Ry

     iteration #  2     ecut=    40.00 Ry     beta= 0.50
     Davidson diagonalization with overlap
     ethr =  7.31E-05,  avg # of iterations =  2.8

     total cpu time spent up to now is     2382.7 secs

     total energy              =     -91.16225040 Ry
     Harris-Foulkes estimate   =     -91.16430711 Ry
     estimated scf accuracy    <       0.00516453 Ry

     iteration #  3     ecut=    40.00 Ry     beta= 0.50
     Davidson diagonalization with overlap
     ethr =  1.61E-05,  avg # of iterations =  2.7

     total cpu time spent up to now is     2396.1 secs

     total energy              =     -91.16258321 Ry
     Harris-Foulkes estimate   =     -91.16300650 Ry
     estimated scf accuracy    <       0.00106569 Ry

     iteration #  4     ecut=    40.00 Ry     beta= 0.50
     Davidson diagonalization with overlap
     ethr =  3.33E-06,  avg # of iterations =  2.9

     total cpu time spent up to now is     2410.7 secs

     total energy              =     -91.16270997 Ry
     Harris-Foulkes estimate   =     -91.16284099 Ry
     estimated scf accuracy    <       0.00038915 Ry

     iteration #  5     ecut=    40.00 Ry     beta= 0.50
     Davidson diagonalization with overlap
     ethr =  1.22E-06,  avg # of iterations =  2.9

     total cpu time spent up to now is     2424.4 secs

     total energy              =     -91.16277778 Ry
     Harris-Foulkes estimate   =     -91.16277536 Ry
     estimated scf accuracy    <       0.00000775 Ry

     iteration #  6     ecut=    40.00 Ry     beta= 0.50
     Davidson diagonalization with overlap
     ethr =  2.42E-08,  avg # of iterations =  2.9

     total cpu time spent up to now is     2439.6 secs

     total energy              =     -91.16277919 Ry
     Harris-Foulkes estimate   =     -91.16277957 Ry
     estimated scf accuracy    <       0.00000098 Ry

     iteration #  7     ecut=    40.00 Ry     beta= 0.50
     Davidson diagonalization with overlap
     ethr =  3.08E-09,  avg # of iterations =  2.0

     total cpu time spent up to now is     2451.7 secs

     End of self-consistent calculation

          k = 0.0000 0.0000 0.0000 (  2297 PWs)   bands (ev):

   -14.0281 -12.5342 -12.5074  -8.7620  -7.6526  -1.9452  -1.9071  -1.5962
    -0.8986  -0.4168  -0.3854   0.4480   0.4710   2.4325   2.5096   2.8436
     6.8680   8.9377  12.3793  12.4061

          k = 0.0002-0.0002 0.7901 (  2275 PWs)   bands (ev):

   -12.9238 -11.4563 -11.4293  -7.8188  -6.8712  -4.2278  -3.5002  -3.4709
    -1.1764  -1.1519  -0.7388  -0.3319   0.4094   0.8348   0.8572   4.1871
     6.4184  10.3562  10.6882  10.6989

          k =-0.0004 0.0005-1.5802 (  2294 PWs)   bands (ev):

    -9.7368  -9.7244  -8.7551  -8.7202  -7.7312  -7.7061  -5.0331  -5.0291
    -3.3899  -3.3806  -0.9156  -0.8945   3.1188   3.1231   3.1484   3.1842
     7.1182   7.1484   8.0481   8.0667

          k = 0.0034 0.5825 0.0002 (  2301 PWs)   bands (ev):

   -13.8209 -13.2856 -11.4477 -10.0277  -6.2019  -4.1335  -1.8934  -1.7250
    -0.7338  -0.2553   0.1996   1.2829   1.3179   1.8577   2.1024   2.3259
     8.2518  10.6457  10.8084  12.2945

          k = 0.0036 0.5822 0.7903 (  2279 PWs)   bands (ev):

   -12.7223 -12.1967 -10.3935  -9.0218  -5.6761  -4.4310  -3.8932  -2.7802
    -2.4773  -1.3895  -0.5951  -0.4199   0.1368   0.5675   2.4403   3.5193
     7.5071   9.0992  12.0971  12.2412

          k = 0.0030 0.5829-1.5800 (  2276 PWs)   bands (ev):

    -9.5601  -9.5464  -9.1182  -9.0982  -7.0860  -7.0759  -5.9056  -5.9016
    -2.5226  -2.5094  -1.4002  -1.3816   2.8433   2.8967   2.9020   2.9186
     7.6029   7.6293   8.0035   8.0107

          k = 0.0032 0.5827-0.7899 (  2279 PWs)   bands (ev):

   -12.7218 -12.1977 -10.3909  -9.0256  -5.6634  -4.4463  -3.9026  -2.7662
    -2.4691  -1.3960  -0.5928  -0.4231   0.1273   0.5750   2.4479   3.5105
     7.5177   9.0873  12.0967  12.2466

          k =-0.5244 0.0180-0.0001 (  2276 PWs)   bands (ev):

   -13.6551 -13.6366 -10.7298 -10.7066  -5.1795  -5.1695  -1.4047  -1.2768
    -0.5709  -0.5038   1.0696   1.0894   1.3228   1.3711   1.7105   1.7847
     9.0934   9.1902   9.8013  10.0074

          k =-0.5242 0.0178 0.7900 (  2281 PWs)   bands (ev):

   -12.5577 -12.5370  -9.7023  -9.6765  -5.0094  -4.9892  -3.4668  -3.4214
    -1.9317  -1.8835  -0.1311  -0.0117   0.4499   0.4877   2.5212   2.5377
     8.3370   8.3540  11.1753  11.3827

          k =-0.5248 0.0185-1.5803 (  2304 PWs)   bands (ev):

    -9.4108  -9.4007  -9.3897  -9.3711  -6.5099  -6.4877  -6.4765  -6.4590
    -1.9126  -1.9086  -1.8987  -1.8910   3.0786   3.1307   3.1670   3.1841
     7.5347   7.5494   7.6009   7.6084

          k =-0.5210 0.6004 0.0001 (  2289 PWs)   bands (ev):

   -13.9088 -12.9982 -11.9774  -9.2982  -7.1541  -3.0063  -2.3489  -0.8480
    -0.8334  -0.5594  -0.0319   0.0672   0.8886   2.3280   2.3539   3.0822
     7.8112  10.6487  11.3758  12.3382

          k =-0.5208 0.6002 0.7902 (  2284 PWs)   bands (ev):

   -12.8110 -11.9100 -10.9116  -8.3295  -6.4193  -4.1372  -3.9769  -2.9716
    -1.9558  -1.0289  -0.9589  -0.4391   0.4807   0.6824   1.2147   4.3194
     6.9057   9.9739  11.3310  12.0549

          k =-0.5214 0.6009-1.5801 (  2286 PWs)   bands (ev):

    -9.6454  -9.6331  -8.9100  -8.8822  -7.5097  -7.4918  -5.3530  -5.3490
    -3.1215  -3.1103  -1.0364  -1.0161   2.6006   2.6194   3.2169   3.2432
     7.1956   7.2257   8.3632   8.3695

          k =-0.5212 0.6007-0.7900 (  2284 PWs)   bands (ev):

   -12.8113 -11.9087 -10.9136  -8.3252  -6.4278  -4.1322  -3.9644  -2.9810
    -1.9684  -1.0293  -0.9542  -0.4289   0.4758   0.6872   1.2082   4.3262
     6.8962   9.9844  11.3246  12.0549

     the Fermi energy is     4.5472 ev

!    total energy              =     -91.16277931 Ry
     Harris-Foulkes estimate   =     -91.16277932 Ry
     estimated scf accuracy    <       0.00000005 Ry

     The total energy is the sum of the following terms:

     one-electron contribution =     -46.53068798 Ry
     hartree contribution      =      37.20619367 Ry
     xc contribution           =     -27.94849021 Ry
     ewald contribution        =     -53.89066410 Ry
     smearing contrib. (-TS)   =       0.00086931 Ry

     convergence has been achieved in   7 iterations

     Forces acting on atoms (cartesian axes, Ry/au):

     atom    1 type  1   force =    -0.00660407    0.00384413   -0.00249033
     atom    2 type  1   force =    -0.00353937    0.00225722    0.00161141
     atom    3 type  1   force =     0.00402607   -0.00293722   -0.00169621
     atom    4 type  1   force =     0.00576396   -0.00376684    0.00260833
     atom    5 type  1   force =    -0.00828828    0.00911532    0.00169921
     atom    6 type  1   force =     0.00753979   -0.00830942   -0.00181346
     atom    7 type  1   force =     0.00299123    0.00700900   -0.00262315
     atom    8 type  1   force =    -0.00188934   -0.00721218    0.00270418

     Total force =     0.024051     Total SCF correction =     0.000210


     Computing stress (Cartesian axis) and pressure

          total   stress  (Ry/bohr**3)                   (kbar)     P=       -7.06
  -0.00007428   0.00003421   0.00001392          -10.93        5.03        2.05
   0.00003421  -0.00001661  -0.00000802            5.03       -2.44       -1.18
   0.00001392  -0.00000802  -0.00005311            2.05       -1.18       -7.81


     number of scf cycles    =  40
     number of bfgs steps    =  33

     enthalpy old            =     -91.1580513599 Ry
     enthalpy new            =     -91.1627418359 Ry

     CASE: enthalpy_new < enthalpy_old

     new trust radius        =       0.1612384323 bohr
     new conv_thr            =       0.0000000912 Ry

     new unit-cell volume =    558.61314 a.u.^3 (    82.77793 Ang^3 )
     density =      1.92578 g/cm^3

CELL_PARAMETERS (bohr)
  14.162800787   0.008572018   0.003191851
   0.353152426   8.475085956  -0.001145370
   0.001375662  -0.003542502   4.654027236

ATOMIC_POSITIONS (crystal)
C             0.4644151568        0.9666479412        0.4033788166
C             0.7972060353        0.6346842258        0.4044350710
C            -0.0354749248        0.4642842157        0.4037457971
C             0.2971701043        0.1322902222        0.4045157439
C             1.0467757430        0.3814579183        0.9045126115
C             0.7147968029        0.7175628334        0.9036658606
C             0.2144260778        0.2150783764        0.9035600701
C             0.5473560047       -0.1162207330        0.9043540292



     Writing output data file ./pp.save/
     NEW-OLD atomic charge density approx. for the potential
     extrapolated charge   32.42142, renormalised to   32.00000

     total cpu time spent up to now is     2452.2 secs

     Self-consistent Calculation

     iteration #  1     ecut=    40.00 Ry     beta= 0.50
     Davidson diagonalization with overlap
     ethr =  1.00E-06,  avg # of iterations =  7.9

     total cpu time spent up to now is     2490.1 secs

     total energy              =     -91.15587405 Ry
     Harris-Foulkes estimate   =     -90.64124329 Ry
     estimated scf accuracy    <       0.02252123 Ry

     iteration #  2     ecut=    40.00 Ry     beta= 0.50
     Davidson diagonalization with overlap
     ethr =  7.04E-05,  avg # of iterations =  2.4

     total cpu time spent up to now is     2505.1 secs

     total energy              =     -91.16377574 Ry
     Harris-Foulkes estimate   =     -91.16528265 Ry
     estimated scf accuracy    <       0.00397902 Ry

     iteration #  3     ecut=    40.00 Ry     beta= 0.50
     Davidson diagonalization with overlap
     ethr =  1.24E-05,  avg # of iterations =  2.7

     total cpu time spent up to now is     2519.2 secs

     total energy              =     -91.16404266 Ry
     Harris-Foulkes estimate   =     -91.16436017 Ry
     estimated scf accuracy    <       0.00084122 Ry

     iteration #  4     ecut=    40.00 Ry     beta= 0.50
     Davidson diagonalization with overlap
     ethr =  2.63E-06,  avg # of iterations =  2.9

     total cpu time spent up to now is     2534.9 secs

     total energy              =     -91.16416358 Ry
     Harris-Foulkes estimate   =     -91.16427167 Ry
     estimated scf accuracy    <       0.00033397 Ry

     iteration #  5     ecut=    40.00 Ry     beta= 0.50
     Davidson diagonalization with overlap
     ethr =  1.04E-06,  avg # of iterations =  2.1

     total cpu time spent up to now is     2547.4 secs

     total energy              =     -91.16422176 Ry
     Harris-Foulkes estimate   =     -91.16421951 Ry
     estimated scf accuracy    <       0.00000727 Ry

     iteration #  6     ecut=    40.00 Ry     beta= 0.50
     Davidson diagonalization with overlap
     ethr =  2.27E-08,  avg # of iterations =  2.7

     total cpu time spent up to now is     2563.0 secs

     total energy              =     -91.16422298 Ry
     Harris-Foulkes estimate   =     -91.16422314 Ry
     estimated scf accuracy    <       0.00000049 Ry

     iteration #  7     ecut=    40.00 Ry     beta= 0.50
     Davidson diagonalization with overlap
     ethr =  1.52E-09,  avg # of iterations =  2.0

     total cpu time spent up to now is     2576.6 secs

     End of self-consistent calculation

          k = 0.0000 0.0000 0.0000 (  2297 PWs)   bands (ev):

   -14.1549 -12.6648 -12.6528  -8.9286  -7.7671  -2.0432  -2.0297  -1.7858
    -1.0229  -0.5320  -0.5181   0.3161   0.3261   2.2651   2.4185   2.6906
     6.7865   8.7534  12.0959  12.1268

          k =-0.0002 0.0001 0.7910 (  2275 PWs)   bands (ev):

   -13.0488 -11.5849 -11.5722  -7.9848  -6.9744  -4.3608  -3.6226  -3.5950
    -1.3135  -1.2858  -0.9017  -0.5004   0.3171   0.7135   0.7324   4.0438
     6.3257  10.1826  10.5720  10.5977

          k = 0.0004-0.0002-1.5821 (  2294 PWs)   bands (ev):

    -9.8516  -9.8464  -8.8732  -8.8383  -7.8833  -7.8476  -5.1963  -5.1942
    -3.5028  -3.4957  -1.0443  -1.0299   2.9794   2.9815   3.0427   3.0863
     6.9845   7.0303   7.9360   7.9430

          k =-0.0004 0.5792 0.0004 (  2301 PWs)   bands (ev):

   -13.9527 -13.4263 -11.5821 -10.1689  -6.3329  -4.2584  -2.0263  -1.8295
    -0.8588  -0.3904   0.0865   1.1089   1.1729   1.7433   1.9483   2.1451
     8.1782  10.5365  10.5781  12.0718

          k =-0.0005 0.5793 0.7915 (  2279 PWs)   bands (ev):

   -12.8511 -12.3366 -10.5219  -9.1671  -5.7745  -4.5728  -4.0497  -2.9009
    -2.5922  -1.5412  -0.7198  -0.5258  -0.0116   0.4612   2.2813   3.3394
     7.4358   8.9776  11.9049  12.1116

          k = 0.0000 0.5790-1.5816 (  2276 PWs)   bands (ev):

    -9.6787  -9.6712  -9.2424  -9.2258  -7.2288  -7.2118  -6.0536  -6.0451
    -2.6485  -2.6387  -1.5281  -1.5151   2.7595   2.7749   2.7865   2.8148
     7.4413   7.4758   7.8465   7.8670

          k =-0.0002 0.5791-0.7906 (  2279 PWs)   bands (ev):

   -12.8524 -12.3342 -10.5277  -9.1586  -5.8031  -4.5383  -4.0278  -2.9328
    -2.6105  -1.5272  -0.7228  -0.5182   0.0097   0.4445   2.2640   3.3572
     7.4089   9.0052  11.8948  12.1004

          k =-0.5199 0.0217 0.0002 (  2276 PWs)   bands (ev):

   -13.7845 -13.7674 -10.8829 -10.8458  -5.3185  -5.2869  -1.5059  -1.4850
    -0.6697  -0.6621   0.9725   1.0178   1.1878   1.2207   1.5693   1.6217
     9.0055   9.0394   9.6679   9.6869

          k =-0.5201 0.0218 0.7912 (  2281 PWs)   bands (ev):

   -12.6840 -12.6670  -9.8524  -9.8132  -5.1373  -5.0907  -3.6025  -3.5711
    -2.0690  -2.0209  -0.2302  -0.2071   0.3187   0.3666   2.3958   2.4363
     8.2044   8.2508  11.0619  11.0792

          k =-0.5195 0.0214-1.5819 (  2304 PWs)   bands (ev):

    -9.5285  -9.5189  -9.5130  -9.4924  -6.6520  -6.6464  -6.6146  -6.6080
    -2.0502  -2.0491  -2.0242  -2.0053   2.9908   3.0050   3.0253   3.0509
     7.4103   7.4440   7.4665   7.4854

          k =-0.5202 0.6009 0.0006 (  2289 PWs)   bands (ev):

   -14.0457 -13.1285 -12.1177  -9.4469  -7.2730  -3.1321  -2.4550  -0.9742
    -0.9537  -0.7312  -0.1632  -0.0671   0.7461   2.1686   2.2542   2.9026
     7.6857  10.4571  11.3164  12.0236

          k =-0.5204 0.6010 0.7917 (  2284 PWs)   bands (ev):

   -12.9459 -12.0363 -11.0529  -8.4695  -6.5442  -4.2645  -4.0765  -3.1144
    -2.1195  -1.1304  -1.1035  -0.5611   0.3758   0.5183   1.0760   4.1664
     6.7795   9.8867  11.2124  11.8918

          k =-0.5199 0.6006-1.5815 (  2286 PWs)   bands (ev):

    -9.7678  -9.7621  -9.0258  -9.0004  -7.6581  -7.6324  -5.5068  -5.5009
    -3.2367  -3.2284  -1.1675  -1.1535   2.5128   2.5242   3.0846   3.1243
     7.0421   7.0872   8.2081   8.2207

          k =-0.5201 0.6008-0.7904 (  2284 PWs)   bands (ev):

   -12.9453 -12.0395 -11.0481  -8.4788  -6.5252  -4.2747  -4.1054  -3.0934
    -2.0911  -1.1280  -1.1132  -0.5845   0.3871   0.5085   1.0893   4.1498
     6.7987   9.8607  11.2286  11.8868

     the Fermi energy is     4.3842 ev

!    total energy              =     -91.16422308 Ry
     Harris-Foulkes estimate   =     -91.16422307 Ry
     estimated scf accuracy    <       0.00000003 Ry

     The total energy is the sum of the following terms:

     one-electron contribution =     -48.95708922 Ry
     hartree contribution      =      38.26642480 Ry
     xc contribution           =     -27.95192933 Ry
     ewald contribution        =     -52.52249181 Ry
     smearing contrib. (-TS)   =       0.00086249 Ry

     convergence has been achieved in   7 iterations

     Forces acting on atoms (cartesian axes, Ry/au):

     atom    1 type  1   force =     0.00281120   -0.00305177    0.00565836
     atom    2 type  1   force =     0.01081796   -0.00855185   -0.00442095
     atom    3 type  1   force =    -0.01214538    0.00920321    0.00441783
     atom    4 type  1   force =    -0.00107307    0.00217643   -0.00559153
     atom    5 type  1   force =     0.00564866   -0.00215205   -0.00469334
     atom    6 type  1   force =    -0.00258852    0.00055431    0.00442718
     atom    7 type  1   force =    -0.00372135    0.00002297    0.00543278
     atom    8 type  1   force =     0.00025050    0.00179874   -0.00523033

     Total force =     0.026590     Total SCF correction =     0.000100


     Computing stress (Cartesian axis) and pressure

          total   stress  (Ry/bohr**3)                   (kbar)     P=       -5.21
  -0.00011703   0.00005785  -0.00003113          -17.22        8.51       -4.58
   0.00005785  -0.00002823   0.00001872            8.51       -4.15        2.75
  -0.00003113   0.00001872   0.00003897           -4.58        2.75        5.73


     number of scf cycles    =  41
     number of bfgs steps    =  34

     enthalpy old            =     -91.1627418359 Ry
     enthalpy new            =     -91.1641851040 Ry

     CASE: enthalpy_new < enthalpy_old

     new trust radius        =       0.0134721272 bohr
     new conv_thr            =       0.0000001215 Ry

     new unit-cell volume =    557.45099 a.u.^3 (    82.60571 Ang^3 )
     density =      1.92979 g/cm^3

CELL_PARAMETERS (bohr)
  14.124156137   0.007687902  -0.004395034
   0.356512049   8.469731177   0.002506618
  -0.001633181  -0.001724109   4.659984809

ATOMIC_POSITIONS (crystal)
C             0.4646167118        0.9661757091        0.4041401067
C             0.7979342724        0.6346963965        0.4038034570
C            -0.0362815251        0.4642730612        0.4043775500
C             0.2970586317        0.1327094322        0.4037792698
C             1.0464398691        0.3811627756        0.9038430905
C             0.7153219084        0.7178051100        0.9042873508
C             0.2143351428        0.2157833555        0.9042705716
C             0.5472459888       -0.1168208402        0.9036666036



     Writing output data file ./pp.save/
     NEW-OLD atomic charge density approx. for the potential
     extrapolated charge   31.93329, renormalised to   32.00000

     total cpu time spent up to now is     2577.1 secs

     Self-consistent Calculation

     iteration #  1     ecut=    40.00 Ry     beta= 0.50
     Davidson diagonalization with overlap
