
     Program PWSCF v.6.5 starts on  7Jul2022 at 20: 5: 4 

     This program is part of the open-source Quantum ESPRESSO suite
     for quantum simulation of materials; please cite
         "P. Giannozzi et al., J. Phys.:Condens. Matter 21 395502 (2009);
         "P. Giannozzi et al., J. Phys.:Condens. Matter 29 465901 (2017);
          URL http://www.quantum-espresso.org", 
     in publications or presentations arising from this work. More details at
     http://www.quantum-espresso.org/quote

     Parallel version (MPI), running on    96 processors

     MPI processes distributed on     2 nodes
     R & G space division:  proc/nbgrp/npool/nimage =      96
     Waiting for input...
     Reading input from standard input
     Message from routine read_cards :
     DEPRECATED: no units specified in CELL_PARAMETERS card

     Current dimensions of program PWSCF are:
     Max number of different atomic species (ntypx) = 10
     Max number of k-points (npk) =  40000
     Max angular momentum in pseudopotentials (lmaxx) =  3

     Subspace diagonalization in iterative solution of the eigenvalue problem:
     one sub-group per band group will be used
     scalapack distributed-memory algorithm (size of sub-group:  9*  9 procs)

 
     Parallelization info
     --------------------
     sticks:   dense  smooth     PW     G-vecs:    dense   smooth      PW
     Min          16      16      5                  204      204      36
     Max          17      17      6                  207      207      37
     Sum        1569    1569    505                19689    19689    3527
 


     bravais-lattice index     =            0
     lattice parameter (alat)  =      15.2550  a.u.
     unit-cell volume          =     574.9114 (a.u.)^3
     number of atoms/cell      =            8
     number of atomic types    =            1
     number of electrons       =        32.00
     number of Kohn-Sham states=           20
     kinetic-energy cutoff     =      40.0000  Ry
     charge density cutoff     =     160.0000  Ry
     convergence threshold     =      1.0E-06
     mixing beta               =       0.5000
     number of iterations used =            8  plain     mixing
     Exchange-correlation=  SLA  PW   PBE  PBE
                           (   1   4   3   4   0   0   0)
     nstep                     =          250


     celldm(1)=  15.255031  celldm(2)=   0.000000  celldm(3)=   0.000000
     celldm(4)=   0.000000  celldm(5)=   0.000000  celldm(6)=   0.000000

     crystal axes: (cart. coord. in units of alat)
               a(1) = (   0.999985  -0.005493  -0.000374 )  
               a(2) = (   0.001127   0.529039   0.000118 )  
               a(3) = (  -0.000170  -0.000059   0.306109 )  

     reciprocal axes: (cart. coord. in units 2 pi/alat)
               b(1) = (  1.000004 -0.002131  0.000556 )  
               b(2) = (  0.010384  1.890199  0.000370 )  
               b(3) = (  0.001217 -0.000731  3.266812 )  


     PseudoPot. # 1 for C  read from file:
     ./C.pbe-van_bm.upf
     MD5 check sum: 1a69bf6b8db32088f5b2163dbdb77a27
     Pseudo is Ultrasoft, Zval =  4.0
     Generated by new atomic code, or converted to UPF format
     Using radial grid of  721 points,  4 beta functions with: 
                l(1) =   0
                l(2) =   0
                l(3) =   1
                l(4) =   1
     Q(r) pseudized with  8 coefficients,  rinner =    0.800   0.800   0.800


     atomic species   valence    mass     pseudopotential
        C              4.00    12.00000     C ( 1.00)

     No symmetry found



   Cartesian axes

     site n.     atom                  positions (alat units)
         1           C   tau(   1) = (   0.4091780   0.1098775   0.2834952  )
         2           C   tau(   2) = (   0.4090389   0.0234586   0.1304542  )
         3           C   tau(   3) = (   0.4095145   0.2879669   0.2835845  )
         4           C   tau(   4) = (   0.4098209   0.3744163   0.1304798  )
         5           C   tau(   5) = (   0.7844708   0.3347888   0.1237927  )
         6           C   tau(   6) = (   0.7843409   0.2484154  -0.0292461  )
         7           C   tau(   7) = (   0.7839953   0.0702895  -0.0293232  )
         8           C   tau(   8) = (   0.7848234   0.5129109   0.1238716  )

     number of k points=    12  Marzari-Vanderbilt smearing, width (Ry)=  0.0200
                       cart. coord. in units 2pi/alat
        k(    1) = (   0.0000000   0.0000000   0.0000000), wk =   0.1250000
        k(    2) = (   0.0003042  -0.0001828   0.8167031), wk =   0.2500000
        k(    3) = (  -0.0006083   0.0003656  -1.6334062), wk =   0.1250000
        k(    4) = (  -0.0051918  -0.9450996  -0.0001850), wk =   0.1250000
        k(    5) = (  -0.0048877  -0.9452824   0.8165181), wk =   0.2500000
        k(    6) = (  -0.0058002  -0.9447340  -1.6335912), wk =   0.1250000
        k(    7) = (  -0.5000018   0.0010657  -0.0002782), wk =   0.1250000
        k(    8) = (  -0.4996977   0.0008829   0.8164249), wk =   0.2500000
        k(    9) = (  -0.5006101   0.0014313  -1.6336844), wk =   0.1250000
        k(   10) = (  -0.5051937  -0.9440339  -0.0004632), wk =   0.1250000
        k(   11) = (  -0.5048895  -0.9442167   0.8162399), wk =   0.2500000
        k(   12) = (  -0.5058020  -0.9436683  -1.6338694), wk =   0.1250000

     Dense  grid:    19689 G-vectors     FFT dimensions: (  64,  36,  20)

     Estimated max dynamical RAM per process >       2.69 MB

     Estimated total dynamical RAM >     258.37 MB

     Initial potential from superposition of free atoms

     starting charge   31.99968, renormalised to   32.00000
     Starting wfcs are   32 randomized atomic wfcs

     total cpu time spent up to now is        1.8 secs

     Self-consistent Calculation

     iteration #  1     ecut=    40.00 Ry     beta= 0.50
     Davidson diagonalization with overlap
     ethr =  1.00E-02,  avg # of iterations =  2.0

     total cpu time spent up to now is        2.4 secs

     total energy              =     -91.07397633 Ry
     Harris-Foulkes estimate   =     -91.44534153 Ry
     estimated scf accuracy    <       0.76726348 Ry

     iteration #  2     ecut=    40.00 Ry     beta= 0.50
     Davidson diagonalization with overlap
     ethr =  2.40E-03,  avg # of iterations =  2.3

     total cpu time spent up to now is        3.1 secs

     total energy              =     -91.09893686 Ry
     Harris-Foulkes estimate   =     -91.13283445 Ry
     estimated scf accuracy    <       0.07418581 Ry

     iteration #  3     ecut=    40.00 Ry     beta= 0.50
     Davidson diagonalization with overlap
     ethr =  2.32E-04,  avg # of iterations =  3.4

     total cpu time spent up to now is        4.0 secs

     total energy              =     -91.11034055 Ry
     Harris-Foulkes estimate   =     -91.11053321 Ry
     estimated scf accuracy    <       0.00218356 Ry

     iteration #  4     ecut=    40.00 Ry     beta= 0.50
     Davidson diagonalization with overlap
     ethr =  6.82E-06,  avg # of iterations =  4.2

     total cpu time spent up to now is        4.8 secs

     total energy              =     -91.11062933 Ry
     Harris-Foulkes estimate   =     -91.11066384 Ry
     estimated scf accuracy    <       0.00046888 Ry

     iteration #  5     ecut=    40.00 Ry     beta= 0.50
     Davidson diagonalization with overlap
     ethr =  1.47E-06,  avg # of iterations =  2.4

     total cpu time spent up to now is        5.4 secs

     total energy              =     -91.11068016 Ry
     Harris-Foulkes estimate   =     -91.11068446 Ry
     estimated scf accuracy    <       0.00001711 Ry

     iteration #  6     ecut=    40.00 Ry     beta= 0.50
     Davidson diagonalization with overlap
     ethr =  5.35E-08,  avg # of iterations =  2.9

     total cpu time spent up to now is        6.2 secs

     End of self-consistent calculation

          k = 0.0000 0.0000 0.0000 (  2467 PWs)   bands (ev):

   -14.5580 -14.2280  -9.2853  -9.0531  -8.1256  -7.9359  -3.2851  -1.6121
    -1.4343  -1.3623   1.8670   1.9128   2.0974   2.2665   2.3046   3.2466
     6.2934   7.6671   8.3142  12.1576

          k = 0.0003-0.0002 0.8167 (  2469 PWs)   bands (ev):

   -13.4534 -13.1422  -8.3399  -8.1269  -7.3426  -7.1519  -4.7529  -4.6085
    -1.9587  -1.2786  -1.1806  -0.3426   0.0855   0.1546   3.4449   4.5445
     5.6221   6.7747   9.7650  12.8978

          k =-0.0006 0.0004-1.6334 (  2476 PWs)   bands (ev):

   -10.2601 -10.2593 -10.0007  -9.9999  -5.5523  -5.5512  -5.3895  -5.3883
    -3.8091  -3.8087  -3.6866  -3.6862   1.7178   1.7187   3.1208   3.1217
     7.3469   7.3480   8.3412   8.3424

          k =-0.0052-0.9451-0.0002 (  2444 PWs)   bands (ev):

   -13.0767 -13.0762 -12.7714 -12.7709  -2.2725  -2.2717  -2.1397  -2.1389
    -1.5329  -1.5325  -0.0884  -0.0876  -0.0236  -0.0226   0.0535   0.0540
    10.2485  10.2486  11.9408  11.9413

          k =-0.0049-0.9453 0.8165 (  2460 PWs)   bands (ev):

   -11.9952 -11.9947 -11.7078 -11.7071  -4.0023  -3.9972  -3.8474  -3.8439
    -1.5503  -1.5461  -1.4596  -1.4532  -0.2675  -0.2655   1.2538   1.2548
     9.7865   9.7995  10.7964  10.8061

          k =-0.0058-0.9447-1.6336 (  2452 PWs)   bands (ev):

    -9.2863  -9.2811  -9.0352  -9.0316  -8.2511  -8.2505  -8.0524  -8.0454
    -1.2624  -1.2614  -1.2093  -1.2013   2.1546   2.1744   3.4150   3.4433
     6.0133   6.0347   7.4458   7.4638

          k =-0.5000 0.0011-0.0003 (  2474 PWs)   bands (ev):

   -14.5555 -14.2311  -9.2839  -9.0545  -8.1242  -7.9374  -3.2296  -1.7039
    -1.4344  -1.3627   1.8675   1.9128   2.1250   2.2671   2.3047   3.2124
     6.3380   7.5782   9.0250  11.5683

          k =-0.4997 0.0009 0.8164 (  2434 PWs)   bands (ev):

   -13.4511 -13.1448  -8.3386  -8.1281  -7.3414  -7.1532  -4.7517  -4.6090
    -1.9066  -1.2780  -1.1808  -0.4264   0.0858   0.1544   3.4712   4.5159
     5.6436   6.7333  10.4615  12.9079

          k =-0.5006 0.0014-1.6337 (  2444 PWs)   bands (ev):

   -10.2585 -10.2576 -10.0026 -10.0018  -5.5514  -5.5502  -5.3901  -5.3889
    -3.8083  -3.8078  -3.6872  -3.6868   1.7559   1.7568   3.0638   3.0647
     7.3674   7.3685   8.3153   8.3165

          k =-0.5052-0.9440-0.0005 (  2468 PWs)   bands (ev):

   -13.0744 -13.0739 -12.7740 -12.7734  -2.2722  -2.2713  -2.1407  -2.1398
    -1.4829  -1.4826  -0.0887  -0.0879  -0.0269  -0.0265  -0.0244  -0.0234
    10.9109  10.9110  11.9659  11.9664

          k =-0.5049-0.9442 0.8162 (  2463 PWs)   bands (ev):

   -11.9932 -11.9927 -11.7100 -11.7093  -4.0019  -3.9967  -3.8483  -3.8448
    -1.5499  -1.5457  -1.4598  -1.4534  -0.2217  -0.2196   1.1820   1.1829
     9.8084   9.8222  10.7558  10.7654

          k =-0.5058-0.9437-1.6339 (  2464 PWs)   bands (ev):

    -9.2848  -9.2796  -9.0368  -9.0332  -8.2497  -8.2491  -8.0537  -8.0467
    -1.2622  -1.2613  -1.2099  -1.2019   2.1838   2.2033   3.3760   3.4017
     6.0648   6.0825   7.3590   7.3759

     the Fermi energy is     4.7818 ev

!    total energy              =     -91.11068573 Ry
     Harris-Foulkes estimate   =     -91.11068599 Ry
     estimated scf accuracy    <       0.00000098 Ry

     The total energy is the sum of the following terms:

     one-electron contribution =     -95.30690231 Ry
     hartree contribution      =      61.17640973 Ry
     xc contribution           =     -28.00211718 Ry
     ewald contribution        =     -28.97889656 Ry
     smearing contrib. (-TS)   =       0.00082059 Ry

     convergence has been achieved in   6 iterations

     Forces acting on atoms (cartesian axes, Ry/au):

     atom    1 type  1   force =    -0.01066276   -0.00563384    0.00052826
     atom    2 type  1   force =    -0.01047233    0.01139065   -0.00005164
     atom    3 type  1   force =    -0.01046544    0.01094938   -0.00052812
     atom    4 type  1   force =    -0.01064591   -0.00537866    0.00101963
     atom    5 type  1   force =     0.01051474   -0.01054193    0.00004461
     atom    6 type  1   force =     0.01061745    0.00483418   -0.00052113
     atom    7 type  1   force =     0.01050648   -0.01030929    0.00011953
     atom    8 type  1   force =     0.01060777    0.00468951   -0.00061114

     Total force =     0.038311     Total SCF correction =     0.000484


     Computing stress (Cartesian axis) and pressure

          total   stress  (Ry/bohr**3)                   (kbar)     P=       16.76
   0.00035427  -0.00011082  -0.00000855           52.12      -16.30       -1.26
  -0.00011082   0.00031562  -0.00000065          -16.30       46.43       -0.10
  -0.00000855  -0.00000065  -0.00032806           -1.26       -0.10      -48.26


     BFGS Geometry Optimization

     number of scf cycles    =   1
     number of bfgs steps    =   0

     enthalpy new            =     -91.1106466529 Ry

     new trust radius        =       0.0445063808 bohr
     new conv_thr            =       0.0000010000 Ry

     new unit-cell volume =    579.77809 a.u.^3 (    85.91425 Ang^3 )
     density =      1.85547 g/cm^3

CELL_PARAMETERS (bohr)
  15.390117184  -0.126725623  -0.008913364
  -0.005008031   8.134119856   0.001651019
  -0.003618912  -0.000975428   4.631393513

ATOMIC_POSITIONS (crystal)
C             0.4084048372        0.2113386850        0.9266555457
C             0.4083749204        0.0500412470        0.4266375608
C             0.4083724163        0.5500215642        0.9265905445
C             0.4083999237        0.7113513265        0.4266957589
C             0.7845197409        0.6397099436        0.4051278961
C             0.7844933051        0.4782942012       -0.0948799825
C             0.7845221694        0.1397207655       -0.0948640720
C             0.7844966869        0.9782872669        0.4051147486



     Writing output data file ./pp.save/
     NEW-OLD atomic charge density approx. for the potential
     extrapolated charge   32.26860, renormalised to   32.00000

     total cpu time spent up to now is        6.2 secs

     Self-consistent Calculation

     iteration #  1     ecut=    40.00 Ry     beta= 0.50
     Davidson diagonalization with overlap
     ethr =  1.00E-06,  avg # of iterations =  6.7

     total cpu time spent up to now is        7.8 secs

     total energy              =     -91.10472225 Ry
     Harris-Foulkes estimate   =     -90.38440439 Ry
     estimated scf accuracy    <       0.00829434 Ry

     iteration #  2     ecut=    40.00 Ry     beta= 0.50
     Davidson diagonalization with overlap
     ethr =  2.59E-05,  avg # of iterations =  3.5

     total cpu time spent up to now is        8.7 secs

     total energy              =     -91.11319256 Ry
     Harris-Foulkes estimate   =     -91.11796087 Ry
     estimated scf accuracy    <       0.01385052 Ry

     iteration #  3     ecut=    40.00 Ry     beta= 0.50
     Davidson diagonalization with overlap
     ethr =  2.59E-05,  avg # of iterations =  2.0

     total cpu time spent up to now is        9.2 secs

     total energy              =     -91.11361724 Ry
     Harris-Foulkes estimate   =     -91.11431836 Ry
     estimated scf accuracy    <       0.00201077 Ry

     iteration #  4     ecut=    40.00 Ry     beta= 0.50
     Davidson diagonalization with overlap
     ethr =  6.28E-06,  avg # of iterations =  2.3

     total cpu time spent up to now is        9.8 secs

     total energy              =     -91.11360862 Ry
     Harris-Foulkes estimate   =     -91.11377899 Ry
     estimated scf accuracy    <       0.00030862 Ry

     iteration #  5     ecut=    40.00 Ry     beta= 0.50
     Davidson diagonalization with overlap
     ethr =  9.64E-07,  avg # of iterations =  2.4

     total cpu time spent up to now is       10.5 secs

     total energy              =     -91.11368315 Ry
     Harris-Foulkes estimate   =     -91.11368561 Ry
     estimated scf accuracy    <       0.00000583 Ry

     iteration #  6     ecut=    40.00 Ry     beta= 0.50
     Davidson diagonalization with overlap
     ethr =  1.82E-08,  avg # of iterations =  2.2

     total cpu time spent up to now is       11.2 secs

     End of self-consistent calculation

          k = 0.0000 0.0000 0.0000 (  2467 PWs)   bands (ev):

   -14.6262 -14.3244  -9.5567  -9.3494  -8.0904  -7.9161  -3.3277  -1.7464
    -1.4036  -1.3413   1.6946   1.7339   1.8625   2.2911   2.3253   2.9210
     6.3573   7.6807   8.2078  12.4656

          k = 0.0005-0.0002 0.8235 (  2469 PWs)   bands (ev):

   -13.5052 -13.2212  -8.6025  -8.4130  -7.2438  -7.0696  -4.8019  -4.6728
    -1.9737  -1.4776  -1.3928  -0.4471   0.1523   0.2146   3.2347   4.2523
     5.7343   6.8275   9.6875  12.8410

          k =-0.0010 0.0003-1.6469 (  2476 PWs)   bands (ev):

   -10.2563 -10.2557 -10.0213 -10.0207  -5.7895  -5.7886  -5.6462  -5.6454
    -3.7764  -3.7760  -3.6646  -3.6643   1.7840   1.7847   3.1049   3.1056
     7.2039   7.2047   8.1155   8.1165

          k =-0.0077-0.9377-0.0002 (  2444 PWs)   bands (ev):

   -13.1698 -13.1696 -12.8906 -12.8903  -2.3785  -2.3780  -2.2558  -2.2552
    -1.6143  -1.6140  -0.1240  -0.1235  -0.1190  -0.1187  -0.0678  -0.0673
    10.1092  10.1092  11.8787  11.8790

          k =-0.0072-0.9379 0.8233 (  2460 PWs)   bands (ev):

   -12.0724 -12.0720 -11.8101 -11.8098  -3.9937  -3.9930  -3.8565  -3.8543
    -1.7121  -1.7095  -1.6271  -1.6263  -0.3151  -0.3141   1.1179   1.1198
     9.8005   9.8100  10.7239  10.7394

          k =-0.0087-0.9374-1.6471 (  2452 PWs)   bands (ev):

    -9.2564  -9.2538  -9.0311  -9.0250  -8.3800  -8.3743  -8.1967  -8.1963
    -1.3894  -1.3848  -1.3380  -1.3358   2.2170   2.2324   3.3932   3.4269
     5.9249   5.9543   7.2621   7.2705

          k =-0.4956-0.0003-0.0004 (  2474 PWs)   bands (ev):

   -14.6239 -14.3271  -9.5554  -9.3508  -8.0889  -7.9175  -3.2748  -1.8324
    -1.4037  -1.3416   1.6951   1.7339   1.8885   2.2918   2.3254   2.8887
     6.4053   7.5887   8.9042  11.3491

          k =-0.4951-0.0005 0.8231 (  2434 PWs)   bands (ev):

   -13.5030 -13.2236  -8.6013  -8.4141  -7.2427  -7.0709  -4.8008  -4.6732
    -1.9241  -1.4771  -1.3930  -0.5257   0.1527   0.2144   3.2595   4.2239
     5.7583   6.7866  10.3705  12.8502

          k =-0.4966 0.0000-1.6473 (  2444 PWs)   bands (ev):

   -10.2548 -10.2542 -10.0231 -10.0224  -5.7886  -5.7877  -5.6468  -5.6459
    -3.7755  -3.7752  -3.6652  -3.6649   1.8204   1.8210   3.0514   3.0521
     7.2233   7.2242   8.0914   8.0923

          k =-0.5033-0.9380-0.0006 (  2468 PWs)   bands (ev):

   -13.1678 -13.1675 -12.8930 -12.8927  -2.3781  -2.3777  -2.2566  -2.2561
    -1.5668  -1.5665  -0.1943  -0.1941  -0.1240  -0.1233  -0.0686  -0.0682
    10.7471  10.7472  11.9109  11.9111

          k =-0.5029-0.9382 0.8229 (  2463 PWs)   bands (ev):

   -12.0705 -12.0702 -11.8122 -11.8119  -3.9934  -3.9926  -3.8574  -3.8552
    -1.7118  -1.7092  -1.6273  -1.6265  -0.2714  -0.2704   1.0507   1.0524
     9.8198   9.8298  10.6920  10.7070

          k =-0.5043-0.9377-1.6475 (  2464 PWs)   bands (ev):

    -9.2550  -9.2524  -9.0325  -9.0265  -8.3788  -8.3730  -8.1978  -8.1974
    -1.3893  -1.3846  -1.3386  -1.3363   2.2450   2.2601   3.3563   3.3877
     5.9728   5.9992   7.1836   7.1914

     the Fermi energy is     4.4897 ev

!    total energy              =     -91.11368491 Ry
     Harris-Foulkes estimate   =     -91.11368502 Ry
     estimated scf accuracy    <       0.00000022 Ry

     The total energy is the sum of the following terms:

     one-electron contribution =     -96.59342075 Ry
     hartree contribution      =      61.72552773 Ry
     xc contribution           =     -28.00654341 Ry
     ewald contribution        =     -28.24006922 Ry
     smearing contrib. (-TS)   =       0.00082075 Ry

     convergence has been achieved in   6 iterations

     Forces acting on atoms (cartesian axes, Ry/au):

     atom    1 type  1   force =    -0.00956774    0.02542862   -0.00016666
     atom    2 type  1   force =    -0.00940553   -0.02084936    0.00060879
     atom    3 type  1   force =    -0.00940091   -0.02059845    0.00098521
     atom    4 type  1   force =    -0.00954875    0.02525368   -0.00053205
     atom    5 type  1   force =     0.00942098    0.01967475   -0.00052069
     atom    6 type  1   force =     0.00954972   -0.02427115    0.00007512
     atom    7 type  1   force =     0.00941506    0.01953722   -0.00057478
     atom    8 type  1   force =     0.00953718   -0.02417531    0.00012506

     Total force =     0.069333     Total SCF correction =     0.001266


     Computing stress (Cartesian axis) and pressure

          total   stress  (Ry/bohr**3)                   (kbar)     P=       19.59
   0.00032400  -0.00009184  -0.00000821           47.66      -13.51       -1.21
  -0.00009184  -0.00017873  -0.00000178          -13.51      -26.29       -0.26
  -0.00000821  -0.00000178   0.00025431           -1.21       -0.26       37.41


     number of scf cycles    =   2
     number of bfgs steps    =   1

     enthalpy old            =     -91.1106466529 Ry
     enthalpy new            =     -91.1136454962 Ry

     CASE: enthalpy_new < enthalpy_old

     new trust radius        =       0.0803805009 bohr
     new conv_thr            =       0.0000002543 Ry

     new unit-cell volume =    589.87492 a.u.^3 (    87.41044 Ang^3 )
     density =      1.82371 g/cm^3

CELL_PARAMETERS (bohr)
  15.636947376  -0.201051685  -0.014963903
  -0.043648212   8.164620071   0.001180234
  -0.005527199  -0.001235816   4.620641871

ATOMIC_POSITIONS (crystal)
C             0.4071283252        0.2135146839        0.9267339649
C             0.4071317322        0.0490739496        0.4267431745
C             0.4071299333        0.5490282686        0.9266671267
C             0.4071256765        0.7135390003        0.4268085160
C             0.7857668509        0.6406488770        0.4050377776
C             0.7857655501        0.4761506740       -0.0949745397
C             0.7857683944        0.1406728043       -0.0949486479
C             0.7857675373        0.9761367423        0.4050106281



     Writing output data file ./pp.save/
     NEW-OLD atomic charge density approx. for the potential
     extrapolated charge   32.54774, renormalised to   32.00000

     total cpu time spent up to now is       11.2 secs

     Self-consistent Calculation

     iteration #  1     ecut=    40.00 Ry     beta= 0.50
     Davidson diagonalization with overlap
     ethr =  1.00E-06,  avg # of iterations =  8.7

     total cpu time spent up to now is       13.2 secs

     total energy              =     -91.07795708 Ry
     Harris-Foulkes estimate   =     -89.60335056 Ry
     estimated scf accuracy    <       0.03455458 Ry

     iteration #  2     ecut=    40.00 Ry     beta= 0.50
     Davidson diagonalization with overlap
     ethr =  1.08E-04,  avg # of iterations =  3.8

     total cpu time spent up to now is       14.2 secs

     total energy              =     -91.11628448 Ry
     Harris-Foulkes estimate   =     -91.13690308 Ry
     estimated scf accuracy    <       0.05996831 Ry

     iteration #  3     ecut=    40.00 Ry     beta= 0.50
     Davidson diagonalization with overlap
     ethr =  1.08E-04,  avg # of iterations =  2.0

     total cpu time spent up to now is       14.8 secs

     total energy              =     -91.11926345 Ry
     Harris-Foulkes estimate   =     -91.12108751 Ry
     estimated scf accuracy    <       0.00892531 Ry

     iteration #  4     ecut=    40.00 Ry     beta= 0.50
     Davidson diagonalization with overlap
     ethr =  2.79E-05,  avg # of iterations =  1.3

     total cpu time spent up to now is       15.3 secs

     total energy              =     -91.11725822 Ry
     Harris-Foulkes estimate   =     -91.11950954 Ry
     estimated scf accuracy    <       0.00409874 Ry

     iteration #  5     ecut=    40.00 Ry     beta= 0.50
     Davidson diagonalization with overlap
     ethr =  1.28E-05,  avg # of iterations =  3.0

     total cpu time spent up to now is       16.0 secs

     total energy              =     -91.11823928 Ry
     Harris-Foulkes estimate   =     -91.11824927 Ry
     estimated scf accuracy    <       0.00005258 Ry

     iteration #  6     ecut=    40.00 Ry     beta= 0.50
     Davidson diagonalization with overlap
     ethr =  1.64E-07,  avg # of iterations =  2.9

     total cpu time spent up to now is       16.8 secs

     total energy              =     -91.11824551 Ry
     Harris-Foulkes estimate   =     -91.11825364 Ry
     estimated scf accuracy    <       0.00002322 Ry

     iteration #  7     ecut=    40.00 Ry     beta= 0.50
     Davidson diagonalization with overlap
     ethr =  7.26E-08,  avg # of iterations =  1.9

     total cpu time spent up to now is       17.4 secs

     total energy              =     -91.11824541 Ry
     Harris-Foulkes estimate   =     -91.11824743 Ry
     estimated scf accuracy    <       0.00000346 Ry

     iteration #  8     ecut=    40.00 Ry     beta= 0.50
     Davidson diagonalization with overlap
     ethr =  1.08E-08,  avg # of iterations =  2.0

     total cpu time spent up to now is       18.0 secs

     total energy              =     -91.11824637 Ry
     Harris-Foulkes estimate   =     -91.11824654 Ry
     estimated scf accuracy    <       0.00000026 Ry

     iteration #  9     ecut=    40.00 Ry     beta= 0.50
     Davidson diagonalization with overlap
     ethr =  8.17E-10,  avg # of iterations =  2.0

     total cpu time spent up to now is       18.7 secs

     End of self-consistent calculation

          k = 0.0000 0.0000 0.0000 (  2467 PWs)   bands (ev):

   -14.7417 -14.4847  -9.6964  -9.5265  -8.3197  -8.1766  -3.4000  -1.9708
    -1.3869  -1.3359   1.7576   1.7884   1.8165   1.9139   1.9380   2.7405
     6.1263   7.2886   8.0106  12.5017

          k = 0.0008-0.0001 0.8254 (  2469 PWs)   bands (ev):

   -13.6141 -13.3727  -8.7290  -8.5739  -7.4704  -7.3279  -4.8343  -4.7255
    -2.0453  -1.4892  -1.4205  -0.6693  -0.1449  -0.0973   3.1911   4.0772
     5.5546   6.5082   9.4996  12.7673

          k =-0.0016 0.0002-1.6507 (  2476 PWs)   bands (ev):

   -10.3487 -10.3477 -10.1499 -10.1489  -5.8749  -5.8735  -5.7580  -5.7567
    -4.0036  -4.0031  -3.9138  -3.9132   1.6989   1.7000   2.8736   2.8747
     7.1620   7.1634   7.9493   7.9508

          k =-0.0120-0.9343-0.0003 (  2444 PWs)   bands (ev):

   -13.3000 -13.2993 -13.0627 -13.0620  -2.6570  -2.6558  -2.5553  -2.5541
    -1.6926  -1.6920  -0.3430  -0.3424  -0.0963  -0.0951  -0.0507  -0.0495
     9.9038   9.9039  11.6807  11.6815

          k =-0.0112-0.9344 0.8251 (  2460 PWs)   bands (ev):

   -12.1959 -12.1949 -11.9735 -11.9725  -4.0782  -4.0767  -3.9639  -3.9608
    -1.9195  -1.9155  -1.8502  -1.8480  -0.3948  -0.3930   0.8947   0.8961
     9.7001   9.7098  10.5049  10.5208

          k =-0.0136-0.9340-1.6510 (  2452 PWs)   bands (ev):

    -9.3773  -9.3727  -9.1865  -9.1827  -8.4561  -8.4508  -8.3023  -8.3016
    -1.6191  -1.6124  -1.5782  -1.5776   2.1135   2.1312   3.1522   3.1832
     5.9055   5.9345   7.1046   7.1145

          k =-0.4878-0.0026-0.0006 (  2474 PWs)   bands (ev):

   -14.7397 -14.4871  -9.6952  -9.5277  -8.3184  -8.1777  -3.3511  -2.0476
    -1.3870  -1.3362   1.7581   1.7883   1.8412   1.9145   1.9381   2.7103
     6.1721   7.2071   8.6859  10.9550

          k =-0.4870-0.0027 0.8248 (  2434 PWs)   bands (ev):

   -13.6122 -13.3747  -8.7279  -8.5748  -7.4693  -7.3290  -4.8333  -4.7257
    -1.9996  -1.4887  -1.4207  -0.7394  -0.1446  -0.0974   3.2145   4.0505
     5.5774   6.4718  10.1610  12.2917

          k =-0.4894-0.0024-1.6513 (  2444 PWs)   bands (ev):

   -10.3474 -10.3464 -10.1514 -10.1503  -5.8742  -5.8728  -5.7585  -5.7572
    -4.0029  -4.0023  -3.9143  -3.9137   1.7318   1.7330   2.8266   2.8278
     7.1803   7.1817   7.9272   7.9287

          k =-0.4998-0.9369-0.0008 (  2468 PWs)   bands (ev):

   -13.2981 -13.2974 -13.0648 -13.0641  -2.6567  -2.6556  -2.5561  -2.5549
    -1.6488  -1.6483  -0.4099  -0.4093  -0.0967  -0.0954  -0.0515  -0.0503
    10.5245  10.5246  11.7123  11.7129

          k =-0.4990-0.9370 0.8245 (  2463 PWs)   bands (ev):

   -12.1943 -12.1933 -11.9753 -11.9743  -4.0779  -4.0765  -3.9646  -3.9615
    -1.9192  -1.9153  -1.8504  -1.8482  -0.3548  -0.3529   0.8349   0.8361
     9.7174   9.7279  10.4761  10.4918

          k =-0.5014-0.9367-1.6516 (  2464 PWs)   bands (ev):

    -9.3761  -9.3715  -9.1878  -9.1840  -8.4550  -8.4497  -8.3033  -8.3026
    -1.6190  -1.6122  -1.5786  -1.5781   2.1388   2.1564   3.1194   3.1488
     5.9508   5.9776   7.0334   7.0428

     the Fermi energy is     4.3153 ev

!    total energy              =     -91.11824645 Ry
     Harris-Foulkes estimate   =     -91.11824648 Ry
     estimated scf accuracy    <       0.00000003 Ry

     The total energy is the sum of the following terms:

     one-electron contribution =     -98.57469088 Ry
     hartree contribution      =      62.52831882 Ry
     xc contribution           =     -27.98427753 Ry
     ewald contribution        =     -27.08841697 Ry
     smearing contrib. (-TS)   =       0.00082011 Ry

     convergence has been achieved in   9 iterations

     Forces acting on atoms (cartesian axes, Ry/au):

     atom    1 type  1   force =    -0.00719118   -0.00276898   -0.00002194
     atom    2 type  1   force =    -0.00745106    0.00659926    0.00037532
     atom    3 type  1   force =    -0.00745182    0.00718526    0.00099287
     atom    4 type  1   force =    -0.00717775   -0.00310877   -0.00063692
     atom    5 type  1   force =     0.00742783   -0.00717906   -0.00042695
     atom    6 type  1   force =     0.00721394    0.00328289    0.00007132
     atom    7 type  1   force =     0.00742625   -0.00748586   -0.00053652
     atom    8 type  1   force =     0.00720378    0.00347527    0.00018283

     Total force =     0.025952     Total SCF correction =     0.000721


     Computing stress (Cartesian axis) and pressure

          total   stress  (Ry/bohr**3)                   (kbar)     P=       10.83
   0.00024663  -0.00007875  -0.00000663           36.28      -11.58       -0.98
  -0.00007875  -0.00027753   0.00000080          -11.58      -40.83        0.12
  -0.00000663   0.00000080   0.00025175           -0.98        0.12       37.03


     number of scf cycles    =   3
     number of bfgs steps    =   2

     enthalpy old            =     -91.1136454962 Ry
     enthalpy new            =     -91.1182063479 Ry

     CASE: enthalpy_new < enthalpy_old

     new trust radius        =       0.1658307986 bohr
     new conv_thr            =       0.0000000749 Ry

     new unit-cell volume =    609.46570 a.u.^3 (    90.31350 Ang^3 )
     density =      1.76509 g/cm^3

CELL_PARAMETERS (bohr)
  16.149639209  -0.359841392  -0.027791428
  -0.125972087   8.146482694   0.000822234
  -0.009590124  -0.001416816   4.634122421

ATOMIC_POSITIONS (crystal)
C             0.4044859503        0.2150211925        0.9268841797
C             0.4044958889        0.0501365925        0.4269830867
C             0.4044945045        0.5501458974        0.9270218565
C             0.4044883279        0.7150096967        0.4268527177
C             0.7884068590        0.6395007833        0.4047971909
C             0.7884032665        0.4747247422       -0.0951255556
C             0.7884071970        0.1394954662       -0.0952103789
C             0.7884020058        0.9747306292        0.4048749030



     Writing output data file ./pp.save/
     NEW-OLD atomic charge density approx. for the potential
     extrapolated charge   33.02860, renormalised to   32.00000

     total cpu time spent up to now is       18.8 secs

     Self-consistent Calculation

     iteration #  1     ecut=    40.00 Ry     beta= 0.50
     Davidson diagonalization with overlap
     ethr =  1.00E-06,  avg # of iterations =  9.4

     total cpu time spent up to now is       21.2 secs

     total energy              =     -90.95322221 Ry
     Harris-Foulkes estimate   =     -88.17276058 Ry
     estimated scf accuracy    <       0.15286154 Ry

     iteration #  2     ecut=    40.00 Ry     beta= 0.50
     Davidson diagonalization with overlap
     ethr =  4.78E-04,  avg # of iterations =  4.1

     total cpu time spent up to now is       22.3 secs

     total energy              =     -91.11693918 Ry
     Harris-Foulkes estimate   =     -91.20401060 Ry
     estimated scf accuracy    <       0.24841644 Ry

     iteration #  3     ecut=    40.00 Ry     beta= 0.50
     Davidson diagonalization with overlap
     ethr =  4.78E-04,  avg # of iterations =  2.4

     total cpu time spent up to now is       23.1 secs

     total energy              =     -91.13034565 Ry
     Harris-Foulkes estimate   =     -91.13728085 Ry
     estimated scf accuracy    <       0.03672674 Ry

     iteration #  4     ecut=    40.00 Ry     beta= 0.50
     Davidson diagonalization with overlap
     ethr =  1.15E-04,  avg # of iterations =  2.2

     total cpu time spent up to now is       23.8 secs

     total energy              =     -91.12136734 Ry
     Harris-Foulkes estimate   =     -91.13120138 Ry
     estimated scf accuracy    <       0.01871171 Ry

     iteration #  5     ecut=    40.00 Ry     beta= 0.50
     Davidson diagonalization with overlap
     ethr =  5.85E-05,  avg # of iterations =  2.8

     total cpu time spent up to now is       24.7 secs

     total energy              =     -91.12513428 Ry
     Harris-Foulkes estimate   =     -91.12513957 Ry
     estimated scf accuracy    <       0.00003081 Ry

     iteration #  6     ecut=    40.00 Ry     beta= 0.50
     Davidson diagonalization with overlap
     ethr =  9.63E-08,  avg # of iterations =  4.3

     total cpu time spent up to now is       26.0 secs

     total energy              =     -91.12516877 Ry
     Harris-Foulkes estimate   =     -91.12518339 Ry
     estimated scf accuracy    <       0.00002540 Ry

     iteration #  7     ecut=    40.00 Ry     beta= 0.50
     Davidson diagonalization with overlap
     ethr =  7.94E-08,  avg # of iterations =  2.0

     total cpu time spent up to now is       26.8 secs

     total energy              =     -91.12517589 Ry
     Harris-Foulkes estimate   =     -91.12517725 Ry
     estimated scf accuracy    <       0.00000322 Ry

     iteration #  8     ecut=    40.00 Ry     beta= 0.50
     Davidson diagonalization with overlap
     ethr =  1.00E-08,  avg # of iterations =  2.0

     total cpu time spent up to now is       27.6 secs

     total energy              =     -91.12517635 Ry
     Harris-Foulkes estimate   =     -91.12517640 Ry
     estimated scf accuracy    <       0.00000010 Ry

     iteration #  9     ecut=    40.00 Ry     beta= 0.50
     Davidson diagonalization with overlap
     ethr =  3.21E-10,  avg # of iterations =  2.0

     total cpu time spent up to now is       28.4 secs

     End of self-consistent calculation

          k = 0.0000 0.0000 0.0000 (  2467 PWs)   bands (ev):

   -14.9834 -14.8003  -9.8927  -9.7828  -8.6016  -8.5091  -3.5540  -2.4022
    -1.7119  -1.6782   1.4787   1.4983   1.6151   1.6283   1.7094   2.3810
     5.9500   6.8242   7.6416  12.1296

          k = 0.0014-0.0001 0.8230 (  2469 PWs)   bands (ev):

   -13.8643 -13.6930  -8.9324  -8.8325  -7.7725  -7.6800  -5.1183  -5.0437
    -2.2097  -1.7430  -1.6999  -1.1047  -0.4556  -0.4271   3.0732   3.7164
     5.3398   6.0532   9.1259  12.5611

          k =-0.0028 0.0001-1.6460 (  2476 PWs)   bands (ev):

   -10.6256 -10.6251 -10.4862 -10.4857  -6.0983  -6.0976  -6.0239  -6.0231
    -4.2972  -4.2969  -4.2403  -4.2400   1.5024   1.5029   2.4282   2.4288
     7.0103   7.0110   7.5741   7.5748

          k =-0.0209-0.9366-0.0003 (  2444 PWs)   bands (ev):

   -13.5374 -13.5373 -13.3695 -13.3694  -2.9105  -2.9102  -2.8424  -2.8422
    -1.8384  -1.8383  -0.7579  -0.7578  -0.4055  -0.4053  -0.3757  -0.3753
     9.5567   9.5567  11.4851  11.4854

          k =-0.0195-0.9367 0.8226 (  2460 PWs)   bands (ev):

   -12.4419 -12.4410 -12.2850 -12.2843  -4.3775  -4.3741  -4.2987  -4.2969
    -2.1658  -2.1640  -2.1220  -2.1188  -0.5542  -0.5510   0.4742   0.4744
     9.4913   9.5045  10.1053  10.1160

          k =-0.0237-0.9365-1.6463 (  2452 PWs)   bands (ev):

    -9.6636  -9.6554  -9.5295  -9.5289  -8.7014  -8.7005  -8.6000  -8.5935
    -1.8786  -1.8756  -1.8583  -1.8561   1.9145   1.9391   2.7178   2.7412
     5.7480   5.7696   6.6906   6.7122

          k =-0.4725-0.0073-0.0010 (  2474 PWs)   bands (ev):

   -14.9818 -14.8021  -9.8918  -9.7837  -8.6005  -8.5099  -3.5125  -2.4633
    -1.7120  -1.6785   1.4792   1.4983   1.6154   1.6286   1.7305   2.3560
     5.9923   6.7599   8.2784  10.2136

          k =-0.4711-0.0074 0.8220 (  2434 PWs)   bands (ev):

   -13.8629 -13.6945  -8.9315  -8.8332  -7.7717  -7.6808  -5.1175  -5.0438
    -2.1711  -1.7426  -1.7000  -1.1604  -0.4554  -0.4272   3.0930   3.6938
     5.3606   6.0249   9.7514  11.5645

          k =-0.4753-0.0072-1.6469 (  2444 PWs)   bands (ev):

   -10.6246 -10.6241 -10.4873 -10.4868  -6.0976  -6.0970  -6.0243  -6.0235
    -4.2966  -4.2963  -4.2406  -4.2404   1.5299   1.5304   2.3911   2.3916
     7.0258   7.0265   7.5562   7.5570

          k =-0.4933-0.9439-0.0013 (  2468 PWs)   bands (ev):

   -13.5360 -13.5359 -13.3709 -13.3708  -2.9105  -2.9102  -2.8430  -2.8427
    -1.8022  -1.8021  -0.8101  -0.8100  -0.4059  -0.4057  -0.3764  -0.3760
    10.1345  10.1345  11.5073  11.5075

          k =-0.4919-0.9440 0.8217 (  2463 PWs)   bands (ev):

   -12.4407 -12.4398 -12.2863 -12.2856  -4.3774  -4.3740  -4.2992  -4.2974
    -2.1656  -2.1639  -2.1221  -2.1189  -0.5211  -0.5180   0.4274   0.4280
     9.5056   9.5199  10.0810  10.0925

          k =-0.4962-0.9438-1.6473 (  2464 PWs)   bands (ev):

    -9.6627  -9.6545  -9.5304  -9.5298  -8.7005  -8.6996  -8.6008  -8.5942
    -1.8785  -1.8754  -1.8587  -1.8564   1.9355   1.9601   2.6916   2.7143
     5.7879   5.8085   6.6327   6.6538

     the Fermi energy is     3.9559 ev

!    total energy              =     -91.12517638 Ry
     Harris-Foulkes estimate   =     -91.12517639 Ry
     estimated scf accuracy    <       0.00000001 Ry

     The total energy is the sum of the following terms:

     one-electron contribution =    -102.84294420 Ry
     hartree contribution      =      64.31179967 Ry
     xc contribution           =     -27.96434864 Ry
     ewald contribution        =     -24.63051612 Ry
     smearing contrib. (-TS)   =       0.00083291 Ry

     convergence has been achieved in   9 iterations

     Forces acting on atoms (cartesian axes, Ry/au):

     atom    1 type  1   force =    -0.00393392   -0.01176321    0.00057825
     atom    2 type  1   force =    -0.00456896    0.01433890   -0.00034268
     atom    3 type  1   force =    -0.00455722    0.01421256   -0.00063361
     atom    4 type  1   force =    -0.00394859   -0.01160955    0.00085768
     atom    5 type  1   force =     0.00448195   -0.01324490    0.00020080
     atom    6 type  1   force =     0.00402103    0.01065936   -0.00043627
     atom    7 type  1   force =     0.00447738   -0.01317367    0.00023763
     atom    8 type  1   force =     0.00402835    0.01058051   -0.00046180

     Total force =     0.037452     Total SCF correction =     0.000481


     Computing stress (Cartesian axis) and pressure

          total   stress  (Ry/bohr**3)                   (kbar)     P=        4.34
   0.00013800  -0.00005403  -0.00000432           20.30       -7.95       -0.64
  -0.00005403  -0.00012705   0.00000436           -7.95      -18.69        0.64
  -0.00000432   0.00000436   0.00007751           -0.64        0.64       11.40


     number of scf cycles    =   4
     number of bfgs steps    =   3

     enthalpy old            =     -91.1182063479 Ry
     enthalpy new            =     -91.1251349491 Ry

     CASE: enthalpy_new < enthalpy_old

     new trust radius        =       0.2313358634 bohr
     new conv_thr            =       0.0000001434 Ry

     new unit-cell volume =    636.36022 a.u.^3 (    94.29885 Ang^3 )
     density =      1.69049 g/cm^3

CELL_PARAMETERS (bohr)
  16.876066025  -0.592379555  -0.046425816
  -0.246478226   8.122874609   0.001964604
  -0.015517987  -0.000701764   4.647173107

ATOMIC_POSITIONS (crystal)
C             0.4007637320        0.2160885630        0.9273474941
C             0.4006537835        0.0528223456        0.4270934129
C             0.4006559817        0.5527787081        0.9269981876
C             0.4007690133        0.7161232807        0.4274566314
C             0.7922400262        0.6370323310        0.4046447273
C             0.7921337052        0.4734417338       -0.0955483588
C             0.7922375042        0.1370551013       -0.0953456092
C             0.7921302539        0.9734229365        0.4044315145



     Writing output data file ./pp.save/
     NEW-OLD atomic charge density approx. for the potential
     extrapolated charge   33.35240, renormalised to   32.00000

     total cpu time spent up to now is       28.5 secs

     Self-consistent Calculation

     iteration #  1     ecut=    40.00 Ry     beta= 0.50
     Davidson diagonalization with overlap
     ethr =  1.00E-06,  avg # of iterations =  8.6

     total cpu time spent up to now is       31.4 secs

     total energy              =     -90.62927623 Ry
     Harris-Foulkes estimate   =     -87.05365188 Ry
     estimated scf accuracy    <       0.45429471 Ry

     iteration #  2     ecut=    40.00 Ry     beta= 0.50
     Davidson diagonalization with overlap
     ethr =  1.42E-03,  avg # of iterations =  4.3

     total cpu time spent up to now is       32.9 secs

     total energy              =     -91.10986737 Ry
     Harris-Foulkes estimate   =     -91.35280182 Ry
     estimated scf accuracy    <       0.67472365 Ry

     iteration #  3     ecut=    40.00 Ry     beta= 0.50
     Davidson diagonalization with overlap
     ethr =  1.42E-03,  avg # of iterations =  2.1

     total cpu time spent up to now is       33.9 secs

     total energy              =     -91.14445081 Ry
     Harris-Foulkes estimate   =     -91.16613082 Ry
     estimated scf accuracy    <       0.10348791 Ry

     iteration #  4     ecut=    40.00 Ry     beta= 0.50
     Davidson diagonalization with overlap
     ethr =  3.23E-04,  avg # of iterations =  1.3

     total cpu time spent up to now is       34.6 secs

     total energy              =     -91.12645386 Ry
     Harris-Foulkes estimate   =     -91.14706260 Ry
     estimated scf accuracy    <       0.05018467 Ry

     iteration #  5     ecut=    40.00 Ry     beta= 0.50
     Davidson diagonalization with overlap
     ethr =  1.57E-04,  avg # of iterations =  2.2

     total cpu time spent up to now is       35.6 secs

     total energy              =     -91.13036744 Ry
     Harris-Foulkes estimate   =     -91.13172506 Ry
     estimated scf accuracy    <       0.00396781 Ry

     iteration #  6     ecut=    40.00 Ry     beta= 0.50
     Davidson diagonalization with overlap
     ethr =  1.24E-05,  avg # of iterations =  3.4

     total cpu time spent up to now is       36.8 secs

     total energy              =     -91.13032308 Ry
     Harris-Foulkes estimate   =     -91.13069973 Ry
     estimated scf accuracy    <       0.00076371 Ry

     iteration #  7     ecut=    40.00 Ry     beta= 0.50
     Davidson diagonalization with overlap
     ethr =  2.39E-06,  avg # of iterations =  2.9

     total cpu time spent up to now is       38.0 secs

     total energy              =     -91.13045017 Ry
     Harris-Foulkes estimate   =     -91.13045781 Ry
     estimated scf accuracy    <       0.00001388 Ry

     iteration #  8     ecut=    40.00 Ry     beta= 0.50
     Davidson diagonalization with overlap
     ethr =  4.34E-08,  avg # of iterations =  2.6

     total cpu time spent up to now is       39.2 secs

     total energy              =     -91.13045297 Ry
     Harris-Foulkes estimate   =     -91.13045360 Ry
     estimated scf accuracy    <       0.00000173 Ry

     iteration #  9     ecut=    40.00 Ry     beta= 0.50
     Davidson diagonalization with overlap
     ethr =  5.40E-09,  avg # of iterations =  2.0

     total cpu time spent up to now is       40.2 secs

     total energy              =     -91.13045295 Ry
     Harris-Foulkes estimate   =     -91.13045314 Ry
     estimated scf accuracy    <       0.00000032 Ry

     iteration # 10     ecut=    40.00 Ry     beta= 0.50
     Davidson diagonalization with overlap
     ethr =  9.89E-10,  avg # of iterations =  2.0

     total cpu time spent up to now is       41.2 secs

     End of self-consistent calculation

          k = 0.0000 0.0000 0.0000 (  2467 PWs)   bands (ev):

   -15.3152 -15.2032 -10.2025 -10.1472  -8.9109  -8.8617  -3.7753  -2.9353
    -2.1771  -2.1583   1.0034   1.0214   1.3377   1.3619   1.4855   1.8842
     5.7899   6.3505   7.1763  11.1914

          k = 0.0023-0.0001 0.8207 (  2469 PWs)   bands (ev):

   -14.2057 -14.1014  -9.2545  -9.2044  -8.0953  -8.0448  -5.5303  -5.4876
    -2.4391  -2.1607  -2.1379  -1.6368  -0.7676  -0.7445   2.8399   3.2214
     5.1154   5.5755   8.6577  12.4557

          k =-0.0045 0.0003-1.6413 (  2476 PWs)   bands (ev):

   -10.9947 -10.9934 -10.9116 -10.9101  -6.4576  -6.4551  -6.4202  -6.4186
    -4.6227  -4.6223  -4.5917  -4.5905   1.2526   1.2541   1.9085   1.9102
     6.7443   6.7464   7.0723   7.0744

          k =-0.0330-0.9400-0.0003 (  2444 PWs)   bands (ev):

   -13.8636 -13.8629 -13.7618 -13.7611  -3.1945  -3.1933  -3.1543  -3.1528
    -2.0572  -2.0566  -1.2788  -1.2781  -0.8723  -0.8696  -0.8537  -0.8526
     9.1225   9.1226  11.2319  11.2331

          k =-0.0307-0.9401 0.8204 (  2460 PWs)   bands (ev):

   -12.7773 -12.7764 -12.6828 -12.6818  -4.7736  -4.7662  -4.7300  -4.7211
    -2.4889  -2.4804  -2.4641  -2.4551  -0.7808  -0.7791  -0.0474  -0.0422
     9.2206   9.2233   9.6200   9.6387

          k =-0.0375-0.9398-1.6416 (  2452 PWs)   bands (ev):

   -10.0225 -10.0170  -9.9510  -9.9388  -9.0752  -9.0616  -9.0130  -9.0043
    -2.1982  -2.1947  -2.1878  -2.1834   1.6794   1.6878   2.2064   2.2452
     5.4735   5.5139   6.1536   6.1584

          k =-0.4525-0.0137-0.0015 (  2474 PWs)   bands (ev):

   -15.3141 -15.2044 -10.2019 -10.1478  -8.9102  -8.8622  -3.7421  -2.9803
    -2.1771  -2.1585   1.0037   1.0215   1.3380   1.3622   1.5018   1.8657
     5.8273   6.3036   7.7670   9.3105

          k =-0.4502-0.0139 0.8192 (  2434 PWs)   bands (ev):

   -14.2047 -14.1025  -9.2539  -9.2049  -8.0948  -8.0453  -5.5297  -5.4876
    -2.4082  -2.1604  -2.1378  -1.6779  -0.7676  -0.7445   2.8549   3.2043
     5.1330   5.5553   9.2405  10.6824

          k =-0.4570-0.0135-1.6429 (  2444 PWs)   bands (ev):

   -10.9940 -10.9926 -10.9123 -10.9108  -6.4571  -6.4547  -6.4204  -6.4188
    -4.6222  -4.6219  -4.5919  -4.5908   1.2743   1.2758   1.8811   1.8828
     6.7561   6.7582   7.0595   7.0616

          k =-0.4855-0.9537-0.0018 (  2468 PWs)   bands (ev):

   -13.8627 -13.8620 -13.7627 -13.7620  -3.1947  -3.1935  -3.1546  -3.1531
    -2.0302  -2.0296  -1.3147  -1.3140  -0.8728  -0.8701  -0.8543  -0.8530
     9.6229   9.6230  11.0637  11.0639

          k =-0.4832-0.9539 0.8189 (  2463 PWs)   bands (ev):

   -12.7765 -12.7756 -12.6836 -12.6826  -4.7736  -4.7662  -4.7302  -4.7214
    -2.4888  -2.4804  -2.4641  -2.4551  -0.7565  -0.7542  -0.0790  -0.0748
     9.2311   9.2353   9.6023   9.6222

          k =-0.4900-0.9535-1.6431 (  2464 PWs)   bands (ev):

   -10.0218 -10.0163  -9.9516  -9.9395  -9.0746  -9.0610  -9.0134  -9.0048
    -2.1981  -2.1947  -2.1879  -2.1835   1.6957   1.7042   2.1871   2.2257
     5.5062   5.5468   6.1104   6.1152

     the Fermi energy is     3.4466 ev

!    total energy              =     -91.13045300 Ry
     Harris-Foulkes estimate   =     -91.13045301 Ry
     estimated scf accuracy    <          8.8E-09 Ry

     The total energy is the sum of the following terms:

     one-electron contribution =    -108.76513821 Ry
     hartree contribution      =      66.82759795 Ry
     xc contribution           =     -27.95175744 Ry
     ewald contribution        =     -21.24238535 Ry
     smearing contrib. (-TS)   =       0.00123006 Ry

     convergence has been achieved in  10 iterations

     Forces acting on atoms (cartesian axes, Ry/au):

     atom    1 type  1   force =    -0.00241892   -0.00033517   -0.00155982
     atom    2 type  1   force =    -0.00116171    0.00140708    0.00169963
     atom    3 type  1   force =    -0.00118572    0.00197327    0.00252940
     atom    4 type  1   force =    -0.00242256   -0.00078545   -0.00241128
     atom    5 type  1   force =     0.00128619   -0.00463930   -0.00127751
     atom    6 type  1   force =     0.00229812    0.00353692    0.00114036
     atom    7 type  1   force =     0.00130308   -0.00493776   -0.00138876
     atom    8 type  1   force =     0.00230153    0.00378041    0.00126799

     Total force =     0.011477     Total SCF correction =     0.000338


     Computing stress (Cartesian axis) and pressure

          total   stress  (Ry/bohr**3)                   (kbar)     P=        1.46
   0.00005242  -0.00002883  -0.00000198            7.71       -4.24       -0.29
  -0.00002883  -0.00001305  -0.00000828           -4.24       -1.92       -1.22
  -0.00000198  -0.00000828  -0.00000960           -0.29       -1.22       -1.41


     number of scf cycles    =   5
     number of bfgs steps    =   4

     enthalpy old            =     -91.1251349491 Ry
     enthalpy new            =     -91.1304097400 Ry

     CASE: enthalpy_new < enthalpy_old

     new trust radius        =       0.1618886535 bohr
     new conv_thr            =       0.0000000494 Ry

     new unit-cell volume =    655.17504 a.u.^3 (    97.08692 Ang^3 )
     density =      1.64195 g/cm^3

CELL_PARAMETERS (bohr)
  17.396002006  -0.763917520  -0.060151628
  -0.335831756   8.117219648  -0.000820737
  -0.019831777  -0.002296976   4.648328694

ATOMIC_POSITIONS (crystal)
C             0.3979731301        0.2175486941        0.9270594245
C             0.3979684726        0.0540797034        0.4278109698
C             0.3979673412        0.5541288315        0.9279567729
C             0.3979828697        0.7175093737        0.4269264440
C             0.7949506938        0.6351848854        0.4040615342
C             0.7948989787        0.4725669021       -0.0953949192
C             0.7949495712        0.1351585478       -0.0959618447
C             0.7948929427        0.9725880621        0.4046196185



     Writing output data file ./pp.save/
     NEW-OLD atomic charge density approx. for the potential
     extrapolated charge   32.91894, renormalised to   32.00000

     total cpu time spent up to now is       41.3 secs

     Self-consistent Calculation

     iteration #  1     ecut=    40.00 Ry     beta= 0.50
     Davidson diagonalization with overlap
     ethr =  1.00E-06,  avg # of iterations =  9.1

     total cpu time spent up to now is       45.1 secs

     total energy              =     -91.00497197 Ry
     Harris-Foulkes estimate   =     -88.24181485 Ry
     estimated scf accuracy    <       0.11390445 Ry

     iteration #  2     ecut=    40.00 Ry     beta= 0.50
     Davidson diagonalization with overlap
     ethr =  3.56E-04,  avg # of iterations =  4.2

     total cpu time spent up to now is       47.0 secs

     total energy              =     -91.12519102 Ry
     Harris-Foulkes estimate   =     -91.18702658 Ry
     estimated scf accuracy    <       0.17436705 Ry

     iteration #  3     ecut=    40.00 Ry     beta= 0.50
     Davidson diagonalization with overlap
     ethr =  3.56E-04,  avg # of iterations =  2.2

     total cpu time spent up to now is       48.2 secs

     total energy              =     -91.13552507 Ry
     Harris-Foulkes estimate   =     -91.14004085 Ry
     estimated scf accuracy    <       0.02448307 Ry

     iteration #  4     ecut=    40.00 Ry     beta= 0.50
     Davidson diagonalization with overlap
     ethr =  7.65E-05,  avg # of iterations =  1.2

     total cpu time spent up to now is       49.1 secs

     total energy              =     -91.12934811 Ry
     Harris-Foulkes estimate   =     -91.13606651 Ry
     estimated scf accuracy    <       0.01296258 Ry

     iteration #  5     ecut=    40.00 Ry     beta= 0.50
     Davidson diagonalization with overlap
     ethr =  4.05E-05,  avg # of iterations =  3.1

     total cpu time spent up to now is       50.6 secs

     total energy              =     -91.13177751 Ry
     Harris-Foulkes estimate   =     -91.13182010 Ry
     estimated scf accuracy    <       0.00014337 Ry

     iteration #  6     ecut=    40.00 Ry     beta= 0.50
     Davidson diagonalization with overlap
     ethr =  4.48E-07,  avg # of iterations =  3.7

     total cpu time spent up to now is       52.5 secs

     total energy              =     -91.13180132 Ry
     Harris-Foulkes estimate   =     -91.13188368 Ry
     estimated scf accuracy    <       0.00023001 Ry

     iteration #  7     ecut=    40.00 Ry     beta= 0.50
     Davidson diagonalization with overlap
     ethr =  4.48E-07,  avg # of iterations =  2.0

     total cpu time spent up to now is       53.8 secs

     total energy              =     -91.13180732 Ry
     Harris-Foulkes estimate   =     -91.13182211 Ry
     estimated scf accuracy    <       0.00002620 Ry

     iteration #  8     ecut=    40.00 Ry     beta= 0.50
     Davidson diagonalization with overlap
     ethr =  8.19E-08,  avg # of iterations =  2.0

     total cpu time spent up to now is       55.1 secs

     total energy              =     -91.13181461 Ry
     Harris-Foulkes estimate   =     -91.13181533 Ry
     estimated scf accuracy    <       0.00000180 Ry

     iteration #  9     ecut=    40.00 Ry     beta= 0.50
     Davidson diagonalization with overlap
     ethr =  5.63E-09,  avg # of iterations =  2.0

     total cpu time spent up to now is       56.3 secs

     total energy              =     -91.13181487 Ry
     Harris-Foulkes estimate   =     -91.13181490 Ry
     estimated scf accuracy    <       0.00000009 Ry

     iteration # 10     ecut=    40.00 Ry     beta= 0.50
     Davidson diagonalization with overlap
     ethr =  2.91E-10,  avg # of iterations =  2.0

     total cpu time spent up to now is       57.8 secs

     End of self-consistent calculation

          k = 0.0000 0.0000 0.0000 (  2467 PWs)   bands (ev):

   -15.5419 -15.4616 -10.4349 -10.4030  -9.1429  -9.0861  -3.9339  -3.2675
    -2.4372  -2.4237   0.7210   0.7550   1.1018   1.1748   1.3086   1.5674
     5.6504   6.0404   6.8737  10.4455

          k = 0.0028 0.0002 0.8205 (  2469 PWs)   bands (ev):

   -14.4344 -14.3598  -9.4899  -9.4613  -8.3285  -8.2682  -5.7789  -5.7507
    -2.5997  -2.4235  -2.4003  -1.9654  -1.0093  -0.9464   2.6609   2.9081
     4.9517   5.2789   8.3580  11.7523

          k =-0.0057-0.0004-1.6409 (  2476 PWs)   bands (ev):

   -11.2296 -11.2269 -11.1692 -11.1680  -6.7017  -6.7000  -6.6810  -6.6772
    -4.8627  -4.8605  -4.8118  -4.8115   1.0855   1.0877   1.5948   1.5969
     6.5550   6.5578   6.7645   6.7675

          k =-0.0413-0.9414-0.0006 (  2444 PWs)   bands (ev):

   -14.0909 -14.0899 -14.0176 -14.0170  -3.4268  -3.4250  -3.3743  -3.3732
    -2.2188  -2.2180  -1.6071  -1.6064  -1.1378  -1.1357  -1.1201  -1.1160
     8.8384   8.8384  11.0229  11.0242

          k =-0.0385-0.9412 0.8198 (  2460 PWs)   bands (ev):

   -13.0068 -13.0051 -12.9390 -12.9375  -5.0246  -5.0014  -4.9896  -4.9716
    -2.7373  -2.7097  -2.7020  -2.6846  -0.9481  -0.9389  -0.3718  -0.3655
     9.0220   9.0483   9.3315   9.3405

          k =-0.0470-0.9418-1.6416 (  2452 PWs)   bands (ev):

   -10.2641 -10.2401 -10.2054 -10.1887  -9.3219  -9.2963  -9.2838  -9.2546
    -2.4488  -2.4330  -2.4113  -2.4044   1.4919   1.5404   1.9176   1.9215
     5.3136   5.3217   5.7956   5.8557

          k =-0.4393-0.0182-0.0019 (  2474 PWs)   bands (ev):

   -15.5410 -15.4624 -10.4345 -10.4034  -9.1426  -9.0863  -3.9055  -3.3043
    -2.4373  -2.4238   0.7213   0.7552   1.1021   1.1751   1.3218   1.5528
     5.6833   6.0036   7.4343   8.7549

          k =-0.4364-0.0180 0.8186 (  2434 PWs)   bands (ev):

   -14.4336 -14.3605  -9.4894  -9.4616  -8.3282  -8.2683  -5.7784  -5.7507
    -2.5733  -2.4233  -2.4001  -1.9990  -1.0094  -0.9464   2.6730   2.8946
     4.9667   5.2633   8.9125  10.1436

          k =-0.4450-0.0186-1.6428 (  2444 PWs)   bands (ev):

   -11.2290 -11.2263 -11.1697 -11.1685  -6.7014  -6.6997  -6.6812  -6.6774
    -4.8625  -4.8603  -4.8117  -4.8115   1.1039   1.1062   1.5727   1.5747
     6.5645   6.5673   6.7545   6.7575

          k =-0.4806-0.9596-0.0025 (  2468 PWs)   bands (ev):

   -14.0903 -14.0893 -14.0183 -14.0176  -3.4271  -3.4252  -3.3745  -3.3733
    -2.1973  -2.1965  -1.6342  -1.6334  -1.1384  -1.1362  -1.1206  -1.1165
     9.2736   9.2737  10.6121  10.6124

          k =-0.4778-0.9594 0.8179 (  2463 PWs)   bands (ev):

   -13.0063 -13.0046 -12.9395 -12.9380  -5.0247  -5.0016  -4.9899  -4.9718
    -2.7373  -2.7097  -2.7020  -2.6846  -0.9282  -0.9201  -0.3966  -0.3890
     9.0295   9.0580   9.3201   9.3261

          k =-0.4863-0.9600-1.6435 (  2464 PWs)   bands (ev):

   -10.2637 -10.2396 -10.2058 -10.1891  -9.3214  -9.2958  -9.2841  -9.2549
    -2.4489  -2.4330  -2.4114  -2.4044   1.5052   1.5540   1.9021   1.9060
     5.3421   5.3502   5.7609   5.8202

     the Fermi energy is     3.1068 ev

!    total energy              =     -91.13181487 Ry
     Harris-Foulkes estimate   =     -91.13181488 Ry
     estimated scf accuracy    <       0.00000001 Ry

     The total energy is the sum of the following terms:

     one-electron contribution =    -112.87014571 Ry
     hartree contribution      =      68.59119369 Ry
     xc contribution           =     -27.94780515 Ry
     ewald contribution        =     -18.90683385 Ry
     smearing contrib. (-TS)   =       0.00177615 Ry

     convergence has been achieved in  10 iterations

     Forces acting on atoms (cartesian axes, Ry/au):

     atom    1 type  1   force =    -0.00091073   -0.00306167    0.00424365
     atom    2 type  1   force =    -0.00080069    0.00345889   -0.00413810
     atom    3 type  1   force =    -0.00075195    0.00280820   -0.00530403
     atom    4 type  1   force =    -0.00098371   -0.00250961    0.00538913
     atom    5 type  1   force =     0.00019821    0.00492247    0.00297054
     atom    6 type  1   force =     0.00151428   -0.00529314   -0.00307292
     atom    7 type  1   force =     0.00018129    0.00526297    0.00313672
     atom    8 type  1   force =     0.00155330   -0.00558811   -0.00322498

     Total force =     0.016891     Total SCF correction =     0.000381


     Computing stress (Cartesian axis) and pressure

          total   stress  (Ry/bohr**3)                   (kbar)     P=        0.76
   0.00001408  -0.00001303  -0.00000225            2.07       -1.92       -0.33
  -0.00001303  -0.00000074   0.00001721           -1.92       -0.11        2.53
  -0.00000225   0.00001721   0.00000224           -0.33        2.53        0.33


     number of scf cycles    =   6
     number of bfgs steps    =   5

     enthalpy old            =     -91.1304097400 Ry
     enthalpy new            =     -91.1317703357 Ry

     CASE: enthalpy_new < enthalpy_old

     new trust radius        =       0.1241186477 bohr
     new conv_thr            =       0.0000000559 Ry

     new unit-cell volume =    669.84791 a.u.^3 (    99.26122 Ang^3 )
     density =      1.60598 g/cm^3

CELL_PARAMETERS (bohr)
  17.801056120  -0.900099552  -0.071342518
  -0.407025966   8.114977476   0.003220548
  -0.023503778   0.000095933   4.648948583

ATOMIC_POSITIONS (crystal)
C             0.3957856355        0.2180055487        0.9282294504
C             0.3958112835        0.0557648788        0.4269952150
C             0.3958169705        0.5557453143        0.9269121429
C             0.3957883743        0.7180270641        0.4283206420
C             0.7970234793        0.6346623403        0.4045977689
C             0.7971707512        0.4709497054       -0.0962849436
C             0.7970193980        0.1346716133       -0.0953928814
C             0.7971681078        0.9709385350        0.4037006058



     Writing output data file ./pp.save/
     NEW-OLD atomic charge density approx. for the potential
     extrapolated charge   32.70095, renormalised to   32.00000

     total cpu time spent up to now is       57.9 secs

     Self-consistent Calculation

     iteration #  1     ecut=    40.00 Ry     beta= 0.50
     Davidson diagonalization with overlap
     ethr =  1.00E-06,  avg # of iterations =  8.9

     total cpu time spent up to now is       62.5 secs

     total energy              =     -91.06604895 Ry
     Harris-Foulkes estimate   =     -88.86708084 Ry
     estimated scf accuracy    <       0.05885438 Ry

     iteration #  2     ecut=    40.00 Ry     beta= 0.50
     Davidson diagonalization with overlap
     ethr =  1.84E-04,  avg # of iterations =  4.2

     total cpu time spent up to now is       65.0 secs

     total energy              =     -91.12836170 Ry
     Harris-Foulkes estimate   =     -91.16007886 Ry
     estimated scf accuracy    <       0.08953522 Ry

     iteration #  3     ecut=    40.00 Ry     beta= 0.50
     Davidson diagonalization with overlap
     ethr =  1.84E-04,  avg # of iterations =  2.2

     total cpu time spent up to now is       66.4 secs

     total energy              =     -91.13415637 Ry
     Harris-Foulkes estimate   =     -91.13620636 Ry
     estimated scf accuracy    <       0.01247520 Ry

     iteration #  4     ecut=    40.00 Ry     beta= 0.50
     Davidson diagonalization with overlap
     ethr =  3.90E-05,  avg # of iterations =  1.0

     total cpu time spent up to now is       67.5 secs

     total energy              =     -91.13353288 Ry
     Harris-Foulkes estimate   =     -91.13449363 Ry
     estimated scf accuracy    <       0.00755341 Ry

     iteration #  5     ecut=    40.00 Ry     beta= 0.50
     Davidson diagonalization with overlap
     ethr =  2.36E-05,  avg # of iterations =  1.0

     total cpu time spent up to now is       68.5 secs

     total energy              =     -91.13077732 Ry
     Harris-Foulkes estimate   =     -91.13367378 Ry
     estimated scf accuracy    <       0.00486528 Ry

     iteration #  6     ecut=    40.00 Ry     beta= 0.50
     Davidson diagonalization with overlap
     ethr =  1.52E-05,  avg # of iterations =  2.9

     total cpu time spent up to now is       70.4 secs

     total energy              =     -91.13201980 Ry
     Harris-Foulkes estimate   =     -91.13213205 Ry
     estimated scf accuracy    <       0.00023957 Ry

     iteration #  7     ecut=    40.00 Ry     beta= 0.50
     Davidson diagonalization with overlap
     ethr =  7.49E-07,  avg # of iterations =  2.3

     total cpu time spent up to now is       72.0 secs

     total energy              =     -91.13205131 Ry
     Harris-Foulkes estimate   =     -91.13205999 Ry
     estimated scf accuracy    <       0.00001318 Ry

     iteration #  8     ecut=    40.00 Ry     beta= 0.50
     Davidson diagonalization with overlap
     ethr =  4.12E-08,  avg # of iterations =  2.0

     total cpu time spent up to now is       73.6 secs

     total energy              =     -91.13205552 Ry
     Harris-Foulkes estimate   =     -91.13205819 Ry
     estimated scf accuracy    <       0.00000484 Ry

     iteration #  9     ecut=    40.00 Ry     beta= 0.50
     Davidson diagonalization with overlap
     ethr =  1.51E-08,  avg # of iterations =  2.0

     total cpu time spent up to now is       75.2 secs

     End of self-consistent calculation

          k = 0.0000 0.0000 0.0000 (  2467 PWs)   bands (ev):

   -15.7126 -15.6430 -10.6080 -10.5851  -9.3393  -9.2448  -4.0565  -3.5008
    -2.6140  -2.6036   0.5279   0.5860   0.8908   1.0292   1.1747   1.3504
     5.5160   5.8103   6.6567   9.9300

          k = 0.0033-0.0002 0.8204 (  2469 PWs)   bands (ev):

   -14.6062 -14.5408  -9.6629  -9.6439  -8.5270  -8.4263  -5.9522  -5.9316
    -2.7243  -2.6066  -2.5748  -2.1970  -1.2152  -1.0992   2.5251   2.6929
     4.8051   5.0628   8.1432  11.2614

          k =-0.0066 0.0003-1.6407 (  2476 PWs)   bands (ev):

   -11.4036 -11.4034 -11.3493 -11.3471  -6.8764  -6.8737  -6.8615  -6.8607
    -5.0592  -5.0590  -4.9707  -4.9693   0.9532   0.9543   1.3711   1.3727
     6.4120   6.4138   6.5524   6.5542

          k =-0.0476-0.9423-0.0002 (  2444 PWs)   bands (ev):

   -14.2630 -14.2628 -14.1980 -14.1974  -3.6229  -3.6224  -3.5362  -3.5352
    -2.3435  -2.3432  -1.8379  -1.8376  -1.3182  -1.3160  -1.2952  -1.2941
     8.6357   8.6357  10.8307  10.8311

          k =-0.0444-0.9425 0.8201 (  2460 PWs)   bands (ev):

   -13.1807 -13.1783 -13.1194 -13.1172  -5.2066  -5.1803  -5.1760  -5.1397
    -2.9260  -2.8986  -2.8812  -2.8407  -1.0760  -1.0659  -0.6046  -0.5902
     8.8773   8.8960   9.1059   9.1436

          k =-0.0542-0.9420-1.6410 (  2452 PWs)   bands (ev):

   -10.4466 -10.4191 -10.3913 -10.3542  -9.5022  -9.4722  -9.4605  -9.4286
    -2.6403  -2.6287  -2.5823  -2.5604   1.3682   1.3916   1.6656   1.7355
     5.1467   5.2269   5.5795   5.6151

          k =-0.4296-0.0215-0.0022 (  2474 PWs)   bands (ev):

   -15.7120 -15.6436 -10.6076 -10.5854  -9.3391  -9.2448  -4.0311  -3.5327
    -2.6140  -2.6036   0.5281   0.5862   0.8911   1.0295   1.1857   1.3384
     5.5431   5.7824   7.1972   8.3648

          k =-0.4263-0.0217 0.8182 (  2434 PWs)   bands (ev):

   -14.6056 -14.5413  -9.6625  -9.6441  -8.5269  -8.4263  -5.9518  -5.9315
    -2.7009  -2.6065  -2.5746  -2.2257  -1.2152  -1.0993   2.5354   2.6818
     4.8175   5.0510   8.6782   9.7648

          k =-0.4361-0.0212-1.6429 (  2444 PWs)   bands (ev):

   -11.4032 -11.4030 -11.3496 -11.3474  -6.8761  -6.8734  -6.8615  -6.8608
    -5.0591  -5.0589  -4.9706  -4.9692   0.9695   0.9706   1.3525   1.3541
     6.4202   6.4220   6.5444   6.5461

          k =-0.4772-0.9639-0.0024 (  2468 PWs)   bands (ev):

   -14.2626 -14.2624 -14.1984 -14.1978  -3.6231  -3.6227  -3.5364  -3.5354
    -2.3258  -2.3255  -1.8592  -1.8589  -1.3187  -1.3165  -1.2956  -1.2946
     9.0171   9.0171  10.2904  10.2907

          k =-0.4740-0.9640 0.8180 (  2463 PWs)   bands (ev):

   -13.1803 -13.1779 -13.1197 -13.1176  -5.2068  -5.1804  -5.1761  -5.1399
    -2.9260  -2.8986  -2.8812  -2.8407  -1.0608  -1.0494  -0.6227  -0.6100
     8.8847   8.9014   9.0951   9.1344

          k =-0.4838-0.9635-1.6431 (  2464 PWs)   bands (ev):

   -10.4463 -10.4188 -10.3915 -10.3544  -9.5018  -9.4724  -9.4601  -9.4289
    -2.6404  -2.6288  -2.5823  -2.5604   1.3797   1.4030   1.6528   1.7225
     5.1719   5.2529   5.5495   5.5849

     the Fermi energy is     2.8898 ev

!    total energy              =     -91.13205649 Ry
     Harris-Foulkes estimate   =     -91.13205650 Ry
     estimated scf accuracy    <       0.00000001 Ry

     The total energy is the sum of the following terms:

     one-electron contribution =    -115.91777249 Ry
     hartree contribution      =      69.90200750 Ry
     xc contribution           =     -27.94344489 Ry
     ewald contribution        =     -17.17467266 Ry
     smearing contrib. (-TS)   =       0.00182605 Ry

     convergence has been achieved in   9 iterations

     Forces acting on atoms (cartesian axes, Ry/au):

     atom    1 type  1   force =    -0.00080314    0.00835188   -0.00698482
     atom    2 type  1   force =    -0.00015604   -0.00825788    0.00706215
     atom    3 type  1   force =    -0.00019622   -0.00799542    0.00778140
     atom    4 type  1   force =    -0.00079244    0.00808673   -0.00771645
     atom    5 type  1   force =     0.00161541   -0.00642072   -0.00501363
     atom    6 type  1   force =    -0.00065282    0.00632479    0.00493858
     atom    7 type  1   force =     0.00163846   -0.00655237   -0.00510552
     atom    8 type  1   force =    -0.00065320    0.00646300    0.00503829

     Total force =     0.027576     Total SCF correction =     0.000273


     Computing stress (Cartesian axis) and pressure

          total   stress  (Ry/bohr**3)                   (kbar)     P=       -0.69
  -0.00000793  -0.00000526   0.00000063           -1.17       -0.77        0.09
  -0.00000526  -0.00000319  -0.00002748           -0.77       -0.47       -4.04
   0.00000063  -0.00002748  -0.00000299            0.09       -4.04       -0.44


     number of scf cycles    =   7
     number of bfgs steps    =   6

     enthalpy old            =     -91.1317703357 Ry
     enthalpy new            =     -91.1320109575 Ry

     CASE: enthalpy_new < enthalpy_old

     new trust radius        =       0.0151727494 bohr
     new conv_thr            =       0.0000000241 Ry

     new unit-cell volume =    671.54563 a.u.^3 (    99.51279 Ang^3 )
     density =      1.60192 g/cm^3

CELL_PARAMETERS (bohr)
  17.850324347  -0.919121615  -0.073010861
  -0.417143695   8.114709269   0.000763710
  -0.023971118  -0.001332677   4.648541393

ATOMIC_POSITIONS (crystal)
C             0.3954507322        0.2185554360        0.9276705066
C             0.3955316381        0.0555030881        0.4276138573
C             0.3955375062        0.5554612881        0.9275034419
C             0.3954517132        0.7185920391        0.4277862068
C             0.7973828113        0.6341790152        0.4041565970
C             0.7974260756        0.4711466386       -0.0959029838
C             0.7973789095        0.1342004498       -0.0958289226
C             0.7974246140        0.9711270452        0.4040792969



     Writing output data file ./pp.save/
     NEW-OLD atomic charge density approx. for the potential
     extrapolated charge   32.08090, renormalised to   32.00000

     total cpu time spent up to now is       75.3 secs

     Self-consistent Calculation

     iteration #  1     ecut=    40.00 Ry     beta= 0.50
     Davidson diagonalization with overlap
     ethr =  1.00E-06,  avg # of iterations =  3.9

     total cpu time spent up to now is       78.1 secs

     total energy              =     -91.13142289 Ry
     Harris-Foulkes estimate   =     -90.87011176 Ry
     estimated scf accuracy    <       0.00081188 Ry

     iteration #  2     ecut=    40.00 Ry     beta= 0.50
     Davidson diagonalization with overlap
     ethr =  2.54E-06,  avg # of iterations =  3.3

     total cpu time spent up to now is       80.4 secs

     total energy              =     -91.13204994 Ry
     Harris-Foulkes estimate   =     -91.13268276 Ry
     estimated scf accuracy    <       0.00197057 Ry

     iteration #  3     ecut=    40.00 Ry     beta= 0.50
     Davidson diagonalization with overlap
     ethr =  2.54E-06,  avg # of iterations =  2.8

     total cpu time spent up to now is       83.2 secs

     total energy              =     -91.13223755 Ry
     Harris-Foulkes estimate   =     -91.13231184 Ry
     estimated scf accuracy    <       0.00033019 Ry

     iteration #  4     ecut=    40.00 Ry     beta= 0.50
     Davidson diagonalization with overlap
     ethr =  1.03E-06,  avg # of iterations =  1.0

     total cpu time spent up to now is       84.4 secs

     total energy              =     -91.13223410 Ry
     Harris-Foulkes estimate   =     -91.13226384 Ry
     estimated scf accuracy    <       0.00009828 Ry

     iteration #  5     ecut=    40.00 Ry     beta= 0.50
     Davidson diagonalization with overlap
     ethr =  3.07E-07,  avg # of iterations =  1.6

     total cpu time spent up to now is       85.9 secs

     total energy              =     -91.13222829 Ry
     Harris-Foulkes estimate   =     -91.13224047 Ry
     estimated scf accuracy    <       0.00002172 Ry

     iteration #  6     ecut=    40.00 Ry     beta= 0.50
     Davidson diagonalization with overlap
     ethr =  6.79E-08,  avg # of iterations =  2.2

     total cpu time spent up to now is       87.7 secs

     total energy              =     -91.13223342 Ry
     Harris-Foulkes estimate   =     -91.13223367 Ry
     estimated scf accuracy    <       0.00000073 Ry

     iteration #  7     ecut=    40.00 Ry     beta= 0.50
     Davidson diagonalization with overlap
     ethr =  2.27E-09,  avg # of iterations =  2.1

     total cpu time spent up to now is       89.5 secs

     total energy              =     -91.13223352 Ry
     Harris-Foulkes estimate   =     -91.13223356 Ry
     estimated scf accuracy    <       0.00000009 Ry

     iteration #  8     ecut=    40.00 Ry     beta= 0.50
     Davidson diagonalization with overlap
     ethr =  2.68E-10,  avg # of iterations =  2.0

     total cpu time spent up to now is       91.4 secs

     End of self-consistent calculation

          k = 0.0000 0.0000 0.0000 (  2467 PWs)   bands (ev):

   -15.7273 -15.6705 -10.6262 -10.6080  -9.3237  -9.3075  -4.0705  -3.5287
    -2.6300  -2.6223   0.5436   0.5469   0.9281   0.9326   1.1606   1.3264
     5.5084   5.7695   6.6323   9.8702

          k = 0.0034 0.0001 0.8204 (  2469 PWs)   bands (ev):

   -14.6205 -14.5681  -9.6816  -9.6654  -8.5087  -8.4914  -5.9705  -5.9510
    -2.7383  -2.6109  -2.6047  -2.2246  -1.1842  -1.1795   2.5111   2.6694
     4.7959   5.0262   8.1193  11.2048

          k =-0.0067-0.0002-1.6409 (  2476 PWs)   bands (ev):

   -11.4171 -11.4155 -11.3764 -11.3748  -6.8944  -6.8923  -6.8826  -6.8802
    -5.0431  -5.0421  -5.0334  -5.0329   0.9391   0.9408   1.3435   1.3453
     6.3970   6.3993   6.5294   6.5318

          k =-0.0485-0.9425-0.0005 (  2444 PWs)   bands (ev):

   -14.2774 -14.2766 -14.2264 -14.2257  -3.6119  -3.6105  -3.5945  -3.5932
    -2.3579  -2.3573  -1.8654  -1.8647  -1.3273  -1.3258  -1.3206  -1.3184
     8.6134   8.6134  10.8051  10.8059

          k =-0.0452-0.9424 0.8199 (  2460 PWs)   bands (ev):

   -13.1937 -13.1929 -13.1468 -13.1460  -5.2067  -5.2033  -5.1869  -5.1827
    -2.9169  -2.9124  -2.9055  -2.9016  -1.0855  -1.0849  -0.6261  -0.6228
     8.8700   8.8743   9.0938   9.1051

          k =-0.0553-0.9426-1.6414 (  2452 PWs)   bands (ev):

   -10.4409 -10.4396 -10.4096 -10.4035  -9.5025  -9.4957  -9.4736  -9.4705
    -2.6282  -2.6257  -2.6251  -2.6237   1.3590   1.3738   1.6578   1.6864
     5.1577   5.1902   5.5647   5.5811

          k =-0.4284-0.0220-0.0022 (  2474 PWs)   bands (ev):

   -15.7266 -15.6712 -10.6258 -10.6084  -9.3232  -9.3079  -4.0454  -3.5602
    -2.6300  -2.6224   0.5438   0.5471   0.9284   0.9327   1.1714   1.3146
     5.5376   5.7397   7.1710   8.3193

          k =-0.4251-0.0219 0.8182 (  2434 PWs)   bands (ev):

   -14.6199 -14.5687  -9.6812  -9.6656  -8.5083  -8.4916  -5.9701  -5.9509
    -2.7151  -2.6107  -2.6046  -2.2530  -1.1843  -1.1794   2.5212   2.6586
     4.8090   5.0138   8.6527   9.7210

          k =-0.4352-0.0222-1.6431 (  2444 PWs)   bands (ev):

   -11.4166 -11.4150 -11.3768 -11.3752  -6.8941  -6.8920  -6.8827  -6.8803
    -5.0428  -5.0417  -5.0334  -5.0329   0.9553   0.9571   1.3252   1.3269
     6.4050   6.4073   6.5216   6.5239

          k =-0.4770-0.9645-0.0027 (  2468 PWs)   bands (ev):

   -14.2769 -14.2762 -14.2269 -14.2262  -3.6123  -3.6108  -3.5946  -3.5933
    -2.3407  -2.3400  -1.8861  -1.8854  -1.3278  -1.3263  -1.3211  -1.3188
     8.9874   8.9874  10.2551  10.2555

          k =-0.4736-0.9644 0.8177 (  2463 PWs)   bands (ev):

   -13.1933 -13.1925 -13.1472 -13.1464  -5.2069  -5.2034  -5.1870  -5.1829
    -2.9169  -2.9123  -2.9056  -2.9017  -1.0703  -1.0691  -0.6437  -0.6421
     8.8752   8.8819   9.0826   9.0965

          k =-0.4837-0.9647-1.6436 (  2464 PWs)   bands (ev):

   -10.4405 -10.4392 -10.4100 -10.4039  -9.5021  -9.4953  -9.4739  -9.4708
    -2.6283  -2.6258  -2.6252  -2.6237   1.3705   1.3853   1.6449   1.6734
     5.1827   5.2157   5.5353   5.5513

     the Fermi energy is     2.8674 ev

!    total energy              =     -91.13223354 Ry
     Harris-Foulkes estimate   =     -91.13223354 Ry
     estimated scf accuracy    <          5.7E-09 Ry

     The total energy is the sum of the following terms:

     one-electron contribution =    -116.23769141 Ry
     hartree contribution      =      70.03845716 Ry
     xc contribution           =     -27.94366131 Ry
     ewald contribution        =     -16.99115370 Ry
     smearing contrib. (-TS)   =       0.00181574 Ry

     convergence has been achieved in   8 iterations

     Forces acting on atoms (cartesian axes, Ry/au):

     atom    1 type  1   force =    -0.00007204    0.00021203   -0.00048813
     atom    2 type  1   force =    -0.00085995   -0.00018434    0.00056464
     atom    3 type  1   force =    -0.00091984    0.00037337    0.00149589
     atom    4 type  1   force =    -0.00003998   -0.00026759   -0.00142715
     atom    5 type  1   force =     0.00061126    0.00048046   -0.00046340
     atom    6 type  1   force =     0.00032434   -0.00052969    0.00038826
     atom    7 type  1   force =     0.00064374    0.00019079   -0.00059357
     atom    8 type  1   force =     0.00031246   -0.00027502    0.00052346

     Total force =     0.003053     Total SCF correction =     0.000243


     Computing stress (Cartesian axis) and pressure

          total   stress  (Ry/bohr**3)                   (kbar)     P=       -0.66
  -0.00000974  -0.00000475  -0.00000063           -1.43       -0.70       -0.09
  -0.00000475  -0.00000231  -0.00000340           -0.70       -0.34       -0.50
  -0.00000063  -0.00000340  -0.00000151           -0.09       -0.50       -0.22


     number of scf cycles    =   8
     number of bfgs steps    =   7

     enthalpy old            =     -91.1320109575 Ry
     enthalpy new            =     -91.1321878856 Ry

     CASE: enthalpy_new < enthalpy_old

     new trust radius        =       0.0115666047 bohr
     new conv_thr            =       0.0000000150 Ry

     new unit-cell volume =    672.76818 a.u.^3 (    99.69396 Ang^3 )
     density =      1.59901 g/cm^3

CELL_PARAMETERS (bohr)
  17.887236959  -0.934914753  -0.074471963
  -0.425672473   8.113926782  -0.000043532
  -0.024430969  -0.001797605   4.648289334

ATOMIC_POSITIONS (crystal)
C             0.3952194547        0.2186752890        0.9275916836
C             0.3952427505        0.0556104429        0.4277472863
C             0.3952417391        0.5556361726        0.9278301683
C             0.3952246754        0.7186536637        0.4275119094
C             0.7976516600        0.6341243686        0.4040436046
C             0.7976777646        0.4709715193       -0.0958442360
C             0.7976513931        0.1341107783       -0.0959688032
C             0.7976745626        0.9709827656        0.4041663870



     Writing output data file ./pp.save/
     NEW-OLD atomic charge density approx. for the potential
     extrapolated charge   32.05815, renormalised to   32.00000

     total cpu time spent up to now is       91.5 secs

     Self-consistent Calculation

     iteration #  1     ecut=    40.00 Ry     beta= 0.50
     Davidson diagonalization with overlap
     ethr =  1.00E-06,  avg # of iterations =  3.2

     total cpu time spent up to now is       94.1 secs

     total energy              =     -91.13185529 Ry
     Harris-Foulkes estimate   =     -90.94351000 Ry
     estimated scf accuracy    <       0.00035731 Ry

     iteration #  2     ecut=    40.00 Ry     beta= 0.50
     Davidson diagonalization with overlap
     ethr =  1.12E-06,  avg # of iterations =  2.9

     total cpu time spent up to now is       96.6 secs

     total energy              =     -91.13221230 Ry
     Harris-Foulkes estimate   =     -91.13240227 Ry
     estimated scf accuracy    <       0.00053904 Ry

     iteration #  3     ecut=    40.00 Ry     beta= 0.50
     Davidson diagonalization with overlap
     ethr =  1.12E-06,  avg # of iterations =  2.0

     total cpu time spent up to now is       98.3 secs

     total energy              =     -91.13225224 Ry
     Harris-Foulkes estimate   =     -91.13226566 Ry
     estimated scf accuracy    <       0.00008357 Ry

     iteration #  4     ecut=    40.00 Ry     beta= 0.50
     Davidson diagonalization with overlap
     ethr =  2.61E-07,  avg # of iterations =  1.0

     total cpu time spent up to now is       99.7 secs

     total energy              =     -91.13224528 Ry
     Harris-Foulkes estimate   =     -91.13225672 Ry
     estimated scf accuracy    <       0.00004839 Ry

[...]
     atom    8 type  1   force =     0.00098704    0.00039483    0.00019498

     Total force =     0.002423     Total SCF correction =     0.000187


     Computing stress (Cartesian axis) and pressure

          total   stress  (Ry/bohr**3)                   (kbar)     P=        0.12
   0.00000116  -0.00000230   0.00000306            0.17       -0.34        0.45
  -0.00000230   0.00000065  -0.00000034           -0.34        0.10       -0.05
   0.00000306  -0.00000034   0.00000054            0.45       -0.05        0.08


     number of scf cycles    =  46
     number of bfgs steps    =  38

     enthalpy old            =     -91.1361267463 Ry
     enthalpy new            =     -91.1361408806 Ry

     CASE: enthalpy_new < enthalpy_old

     new trust radius        =       0.0072647136 bohr
     new conv_thr            =       0.0000000100 Ry

     new unit-cell volume =    559.87247 a.u.^3 (    82.96454 Ang^3 )
     density =      1.92144 g/cm^3

CELL_PARAMETERS (bohr)
  15.293860761  -2.288701444  -0.173235586
  -1.126841438   8.046742750  -0.009613057
  -0.058016409  -0.002202268   4.647443198

ATOMIC_POSITIONS (crystal)
C             0.3703724457        0.2247171605        0.9319653984
C             0.3699787174        0.0614418327        0.4317689310
C             0.3699032319        0.5613854661        0.9316751925
C             0.3700835049        0.7245809411        0.4317221755
C             0.8228562313        0.6282674414        0.3999874982
C             0.8226180055        0.4649737005       -0.1001161250
C             0.8229558038        0.1283288262       -0.0999193968
C             0.8228160595        0.9650696315        0.3999943261



     Writing output data file ./pp.save/
     NEW-OLD atomic charge density approx. for the potential
     extrapolated charge   31.98961, renormalised to   32.00000

     total cpu time spent up to now is     2297.7 secs

     Self-consistent Calculation

     iteration #  1     ecut=    40.00 Ry     beta= 0.50
     Davidson diagonalization with overlap
     ethr =  1.00E-06,  avg # of iterations =  3.0

     Threshold (ethr) on eigenvalues was too large:
     Diagonalizing with lowered threshold

     Davidson diagonalization with overlap
     ethr =  9.10E-08,  avg # of iterations =  1.7

     total cpu time spent up to now is     2320.6 secs

     total energy              =     -91.13619175 Ry
     Harris-Foulkes estimate   =     -91.15106762 Ry
     estimated scf accuracy    <       0.00002802 Ry

     iteration #  2     ecut=    40.00 Ry     beta= 0.50
     Davidson diagonalization with overlap
     ethr =  8.76E-08,  avg # of iterations =  2.0

     total cpu time spent up to now is     2332.0 secs

     total energy              =     -91.13619783 Ry
     Harris-Foulkes estimate   =     -91.13619908 Ry
     estimated scf accuracy    <       0.00000435 Ry

     iteration #  3     ecut=    40.00 Ry     beta= 0.50
     Davidson diagonalization with overlap
     ethr =  1.36E-08,  avg # of iterations =  2.0

     total cpu time spent up to now is     2342.5 secs

     total energy              =     -91.13619825 Ry
     Harris-Foulkes estimate   =     -91.13619837 Ry
     estimated scf accuracy    <       0.00000070 Ry

     iteration #  4     ecut=    40.00 Ry     beta= 0.50
     Davidson diagonalization with overlap
     ethr =  2.18E-09,  avg # of iterations =  2.0

     total cpu time spent up to now is     2353.4 secs

     total energy              =     -91.13619835 Ry
     Harris-Foulkes estimate   =     -91.13619838 Ry
     estimated scf accuracy    <       0.00000009 Ry

     iteration #  5     ecut=    40.00 Ry     beta= 0.50
     Davidson diagonalization with overlap
     ethr =  2.87E-10,  avg # of iterations =  2.0

     total cpu time spent up to now is     2363.9 secs

     End of self-consistent calculation

          k = 0.0000 0.0000 0.0000 (  2467 PWs)   bands (ev):

   -14.1601 -14.0476  -9.0391  -9.0049  -7.7348  -7.7075  -2.6741  -1.7126
    -1.0359  -1.0197   2.1409   2.1468   2.5187   2.5278   2.7146   2.9490
     7.0948   7.3314   8.7203  12.8007

          k = 0.0096 0.0023 0.8207 (  2469 PWs)   bands (ev):

   -13.0508 -12.9469  -8.0935  -8.0625  -6.9122  -6.8968  -4.3817  -4.3464
    -1.3323  -1.0165  -1.0037  -0.4221   0.4068   0.4176   4.0652   4.2910
     6.4350   6.5487  10.1626  13.4325

          k =-0.0193-0.0047-1.6415 (  2476 PWs)   bands (ev):

    -9.8397  -9.8388  -9.7597  -9.7587  -5.3031  -5.3016  -5.2803  -5.2790
    -3.4527  -3.4524  -3.4347  -3.4340   2.3909   2.3920   3.0852   3.0866
     7.9532   7.9549   8.1494   8.1515

          k =-0.1449-0.9682-0.0023 (  2444 PWs)   bands (ev):

   -12.7000 -12.6995 -12.6137 -12.6135  -2.0248  -2.0247  -1.9923  -1.9920
    -0.8604  -0.8588  -0.1805  -0.1793   0.2687   0.2699   0.2810   0.2820
    11.0310  11.0351  12.5063  12.5067

          k =-0.1353-0.9659 0.8185 (  2460 PWs)   bands (ev):

   -11.6151 -11.6135 -11.5358 -11.5337  -3.6156  -3.6122  -3.5821  -3.5802
    -1.3273  -1.3245  -1.3051  -1.3024   0.4063   0.4292   1.0395   1.0695
    10.4634  10.4654  10.6722  10.6768

          k =-0.1642-0.9729-1.6437 (  2452 PWs)   bands (ev):

    -8.8523  -8.8429  -8.8144  -8.7977  -7.9126  -7.8981  -7.8766  -7.8704
    -1.0406  -1.0395  -1.0238  -1.0230   2.8818   2.9685   3.2270   3.3361
     6.7015   6.8236   7.1160   7.2289

          k =-0.5095-0.0714-0.0064 (  2474 PWs)   bands (ev):

   -14.1437 -14.0648  -9.0428  -9.0017  -7.7371  -7.7039  -2.4655  -1.9716
    -1.0341  -1.0219   2.1408   2.1473   2.5190   2.5276   2.6650   2.9813
     7.0612   7.4501   9.9072  11.0086

          k =-0.4998-0.0690 0.8143 (  2434 PWs)   bands (ev):

   -13.0360 -12.9624  -8.0966  -8.0597  -6.9150  -6.8931  -4.3766  -4.3508
    -1.1369  -1.0172  -1.0028  -0.6616   0.4066   0.4180   4.0163   4.3189
     6.4664   6.5625  11.2957  12.3465

          k =-0.5288-0.0760-1.6479 (  2444 PWs)   bands (ev):

    -9.8289  -9.8279  -9.7709  -9.7699  -5.3050  -5.3035  -5.2782  -5.2769
    -3.4540  -3.4536  -3.4328  -3.4321   2.5372   2.5383   2.9142   2.9160
     7.9217   7.9232   8.1819   8.1836

          k =-0.6544-1.0396-0.0087 (  2468 PWs)   bands (ev):

   -12.7018 -12.7012 -12.6119 -12.6116  -2.0239  -2.0236  -1.9937  -1.9933
    -0.8836  -0.8821  -0.1516  -0.1510   0.2679   0.2693   0.2805   0.2817
    10.9105  10.9122  12.4822  12.4868

          k =-0.6448-1.0372 0.8121 (  2463 PWs)   bands (ev):

   -11.6168 -11.6149 -11.5337 -11.5325  -3.6157  -3.6149  -3.5828  -3.5773
    -1.3271  -1.3235  -1.3054  -1.3035   0.3894   0.4085   1.0672   1.0882
    10.4055  10.4564  10.6884  10.7501

          k =-0.6737-1.0442-1.6501 (  2464 PWs)   bands (ev):

    -8.8436  -8.8347  -8.8232  -8.8070  -7.9048  -7.8906  -7.8830  -7.8773
    -1.0398  -1.0388  -1.0245  -1.0236   2.9864   3.0672   3.1068   3.2084
     6.8790   6.9810   7.0066   7.0709

     the Fermi energy is     4.5168 ev

!    total energy              =     -91.13619837 Ry
     Harris-Foulkes estimate   =     -91.13619837 Ry
     estimated scf accuracy    <          8.6E-09 Ry

     The total energy is the sum of the following terms:

     one-electron contribution =     -54.57695541 Ry
     hartree contribution      =      41.08753420 Ry
     xc contribution           =     -27.95045020 Ry
     ewald contribution        =     -49.69800162 Ry
     smearing contrib. (-TS)   =       0.00167467 Ry

     convergence has been achieved in   5 iterations

     Forces acting on atoms (cartesian axes, Ry/au):

     atom    1 type  1   force =    -0.00236223    0.00036973   -0.00120125
     atom    2 type  1   force =     0.00050577   -0.00080121    0.00086286
     atom    3 type  1   force =     0.00050204   -0.00058695    0.00055771
     atom    4 type  1   force =    -0.00130384    0.00026608   -0.00038754
     atom    5 type  1   force =     0.00019989   -0.00010147   -0.00054463
     atom    6 type  1   force =     0.00156177    0.00052350    0.00077797
     atom    7 type  1   force =     0.00001680   -0.00023665   -0.00065245
     atom    8 type  1   force =     0.00087980    0.00056697    0.00058733

     Total force =     0.004150     Total SCF correction =     0.000070


     Computing stress (Cartesian axis) and pressure

          total   stress  (Ry/bohr**3)                   (kbar)     P=       -0.43
   0.00000197  -0.00000163   0.00000339            0.29       -0.24        0.50
  -0.00000163  -0.00000303  -0.00000246           -0.24       -0.45       -0.36
   0.00000339  -0.00000246  -0.00000779            0.50       -0.36       -1.15


     number of scf cycles    =  47
     number of bfgs steps    =  39

     enthalpy old            =     -91.1361408806 Ry
     enthalpy new            =     -91.1361603093 Ry

     CASE: enthalpy_new < enthalpy_old

     new trust radius        =       0.0054138680 bohr
     new conv_thr            =       0.0000000100 Ry

     new unit-cell volume =    560.02327 a.u.^3 (    82.98689 Ang^3 )
     density =      1.92093 g/cm^3

CELL_PARAMETERS (bohr)
  15.299534793  -2.293709773  -0.165223730
  -1.129299653   8.046482723  -0.009693500
  -0.056093993  -0.001894224   4.647468784

ATOMIC_POSITIONS (crystal)
C             0.3703105525        0.2245817384        0.9318849934
C             0.3697965239        0.0612697626        0.4317565072
C             0.3695488953        0.5611258969        0.9314946075
C             0.3697227502        0.7242829551        0.4316829316
C             0.8230305286        0.6284373284        0.4000390039
C             0.8227327539        0.4651355229       -0.1000513469
C             0.8232910482        0.1285817955       -0.0998207323
C             0.8231509474        0.9653500002        0.4000920357



     Writing output data file ./pp.save/
     NEW-OLD atomic charge density approx. for the potential
     extrapolated charge   32.00862, renormalised to   32.00000

     total cpu time spent up to now is     2364.4 secs

     Self-consistent Calculation

     iteration #  1     ecut=    40.00 Ry     beta= 0.50
     Davidson diagonalization with overlap
     ethr =  1.00E-06,  avg # of iterations =  3.0

     total cpu time spent up to now is     2378.5 secs

     total energy              =     -91.13619571 Ry
     Harris-Foulkes estimate   =     -91.12391155 Ry
     estimated scf accuracy    <       0.00003328 Ry

     iteration #  2     ecut=    40.00 Ry     beta= 0.50
     Davidson diagonalization with overlap
     ethr =  1.04E-07,  avg # of iterations =  2.0

     total cpu time spent up to now is     2390.9 secs

     total energy              =     -91.13620937 Ry
     Harris-Foulkes estimate   =     -91.13621656 Ry
     estimated scf accuracy    <       0.00001752 Ry

     iteration #  3     ecut=    40.00 Ry     beta= 0.50
     Davidson diagonalization with overlap
     ethr =  5.48E-08,  avg # of iterations =  2.0

     total cpu time spent up to now is     2401.6 secs

     total energy              =     -91.13621185 Ry
     Harris-Foulkes estimate   =     -91.13621213 Ry
     estimated scf accuracy    <       0.00000106 Ry

     iteration #  4     ecut=    40.00 Ry     beta= 0.50
     Davidson diagonalization with overlap
     ethr =  3.30E-09,  avg # of iterations =  2.0

     total cpu time spent up to now is     2412.4 secs

     total energy              =     -91.13621200 Ry
     Harris-Foulkes estimate   =     -91.13621201 Ry
     estimated scf accuracy    <       0.00000006 Ry

     iteration #  5     ecut=    40.00 Ry     beta= 0.50
     Davidson diagonalization with overlap
     ethr =  1.95E-10,  avg # of iterations =  2.4

     total cpu time spent up to now is     2425.4 secs

     End of self-consistent calculation

          k = 0.0000 0.0000 0.0000 (  2467 PWs)   bands (ev):

   -14.1617 -14.0502  -9.0418  -9.0078  -7.7358  -7.7086  -2.6744  -1.7170
    -1.0388  -1.0227   2.1370   2.1427   2.5176   2.5271   2.7126   2.9461
     7.0939   7.3300   8.7170  12.7984

          k = 0.0092 0.0023 0.8207 (  2469 PWs)   bands (ev):

   -13.0526 -12.9495  -8.0963  -8.0655  -6.9133  -6.8977  -4.3843  -4.3493
    -1.3326  -1.0200  -1.0074  -0.4263   0.4059   0.4172   4.0625   4.2878
     6.4344   6.5467  10.1591  13.4301

          k =-0.0184-0.0046-1.6414 (  2476 PWs)   bands (ev):

    -9.8414  -9.8408  -9.7620  -9.7614  -5.3058  -5.3049  -5.2833  -5.2825
    -3.4538  -3.4536  -3.4357  -3.4352   2.3905   2.3916   3.0818   3.0832
     7.9496   7.9529   8.1459   8.1483

          k =-0.1452-0.9683-0.0021 (  2444 PWs)   bands (ev):

   -12.7017 -12.7011 -12.6163 -12.6161  -2.0261  -2.0259  -1.9938  -1.9934
    -0.8609  -0.8578  -0.1865  -0.1834   0.2657   0.2666   0.2778   0.2785
    11.0275  11.0365  12.5040  12.5048

          k =-0.1360-0.9660 0.8186 (  2460 PWs)   bands (ev):

   -11.6168 -11.6153 -11.5384 -11.5363  -3.6179  -3.6141  -3.5848  -3.5825
    -1.3295  -1.3264  -1.3074  -1.3042   0.4068   0.4290   1.0350   1.0643
    10.4615  10.4654  10.6678  10.6736

          k =-0.1636-0.9729-1.6436 (  2452 PWs)   bands (ev):

    -8.8537  -8.8450  -8.8164  -8.7998  -7.9152  -7.9006  -7.8791  -7.8736
    -1.0424  -1.0412  -1.0257  -1.0245   2.8826   2.9660   3.2260   3.3322
     6.7007   6.8199   7.1137   7.2224

          k =-0.5093-0.0715-0.0062 (  2474 PWs)   bands (ev):

   -14.1453 -14.0675  -9.0454  -9.0047  -7.7381  -7.7050  -2.4648  -1.9770
    -1.0369  -1.0250   2.1368   2.1431   2.5178   2.5267   2.6639   2.9779
     7.0608   7.4480   9.9065  10.9960

          k =-0.5001-0.0692 0.8145 (  2434 PWs)   bands (ev):

   -13.0376 -12.9651  -8.0994  -8.0627  -6.9159  -6.8940  -4.3791  -4.3538
    -1.1361  -1.0207  -1.0065  -0.6669   0.4057   0.4175   4.0141   4.3152
     6.4658   6.5604  11.2957  12.3336

          k =-0.5277-0.0761-1.6476 (  2444 PWs)   bands (ev):

    -9.8304  -9.8298  -9.7733  -9.7727  -5.3077  -5.3068  -5.2812  -5.2804
    -3.4550  -3.4548  -3.4338  -3.4334   2.5376   2.5393   2.9098   2.9113
     7.9190   7.9210   8.1782   8.1799

          k =-0.6545-1.0398-0.0083 (  2468 PWs)   bands (ev):

   -12.7035 -12.7029 -12.6143 -12.6143  -2.0252  -2.0248  -1.9953  -1.9948
    -0.8847  -0.8822  -0.1564  -0.1544   0.2649   0.2660   0.2773   0.2781
    10.9043  10.9074  12.4793  12.4894

          k =-0.6453-1.0375 0.8124 (  2463 PWs)   bands (ev):

   -11.6185 -11.6167 -11.5362 -11.5351  -3.6178  -3.6171  -3.5854  -3.5796
    -1.3292  -1.3253  -1.3078  -1.3053   0.3890   0.4077   1.0637   1.0839
    10.4050  10.4539  10.6862  10.7463

          k =-0.6729-1.0444-1.6498 (  2464 PWs)   bands (ev):

    -8.8450  -8.8368  -8.8252  -8.8092  -7.9074  -7.8931  -7.8854  -7.8806
    -1.0416  -1.0404  -1.0265  -1.0251   2.9872   3.0655   3.1050   3.2044
     6.8784   6.9778   7.0035   7.0651

     the Fermi energy is     4.5131 ev

!    total energy              =     -91.13621201 Ry
     Harris-Foulkes estimate   =     -91.13621201 Ry
     estimated scf accuracy    <          8.9E-09 Ry

     The total energy is the sum of the following terms:

     one-electron contribution =     -54.51220274 Ry
     hartree contribution      =      41.05186140 Ry
     xc contribution           =     -27.95022287 Ry
     ewald contribution        =     -49.72732607 Ry
     smearing contrib. (-TS)   =       0.00167826 Ry

     convergence has been achieved in   5 iterations

     Forces acting on atoms (cartesian axes, Ry/au):

     atom    1 type  1   force =    -0.00317784    0.00056692   -0.00095455
     atom    2 type  1   force =     0.00065704   -0.00106848    0.00054136
     atom    3 type  1   force =     0.00102846   -0.00086890    0.00122744
     atom    4 type  1   force =    -0.00114245    0.00063016   -0.00097349
     atom    5 type  1   force =     0.00021282    0.00012951   -0.00043853
     atom    6 type  1   force =     0.00208525    0.00034566    0.00071585
     atom    7 type  1   force =    -0.00038324   -0.00002178   -0.00066951
     atom    8 type  1   force =     0.00071997    0.00028692    0.00055142

     Total force =     0.005089     Total SCF correction =     0.000246


     Computing stress (Cartesian axis) and pressure

          total   stress  (Ry/bohr**3)                   (kbar)     P=       -0.54
   0.00000033  -0.00000173   0.00000331            0.05       -0.26        0.49
  -0.00000173  -0.00000475  -0.00000271           -0.26       -0.70       -0.40
   0.00000331  -0.00000271  -0.00000661            0.49       -0.40       -0.97


     number of scf cycles    =  48
     number of bfgs steps    =  40

     enthalpy old            =     -91.1361603093 Ry
     enthalpy new            =     -91.1361739399 Ry

     CASE: enthalpy_new < enthalpy_old

     new trust radius        =       0.0059561889 bohr
     new conv_thr            =       0.0000000100 Ry

     new unit-cell volume =    559.53553 a.u.^3 (    82.91461 Ang^3 )
     density =      1.92260 g/cm^3

CELL_PARAMETERS (bohr)
  15.287997220  -2.300563458  -0.155684153
  -1.131344857   8.046269123  -0.009782964
  -0.053697164  -0.001518900   4.647545599

ATOMIC_POSITIONS (crystal)
C             0.3701663683        0.2244067131        0.9317887659
C             0.3695858851        0.0610585826        0.4317094385
C             0.3691765442        0.5608248400        0.9313774976
C             0.3693247328        0.7239756965        0.4315912228
C             0.8232435935        0.6286416116        0.4001202319
C             0.8229142670        0.4653388371       -0.0999775879
C             0.8236507181        0.1288660451       -0.0997136302
C             0.8235218909        0.9656526740        0.4001820613



     Writing output data file ./pp.save/
     NEW-OLD atomic charge density approx. for the potential
     extrapolated charge   31.97211, renormalised to   32.00000

     total cpu time spent up to now is     2425.9 secs

     Self-consistent Calculation

     iteration #  1     ecut=    40.00 Ry     beta= 0.50
     Davidson diagonalization with overlap
     ethr =  1.00E-06,  avg # of iterations =  3.0

     Threshold (ethr) on eigenvalues was too large:
     Diagonalizing with lowered threshold

     Davidson diagonalization with overlap
     ethr =  8.55E-08,  avg # of iterations =  1.4

     total cpu time spent up to now is     2448.7 secs

     total energy              =     -91.13620494 Ry
     Harris-Foulkes estimate   =     -91.17580992 Ry
     estimated scf accuracy    <       0.00002720 Ry

     iteration #  2     ecut=    40.00 Ry     beta= 0.50
     Davidson diagonalization with overlap
     ethr =  8.50E-08,  avg # of iterations =  2.1

     total cpu time spent up to now is     2460.6 secs

     total energy              =     -91.13622773 Ry
     Harris-Foulkes estimate   =     -91.13623222 Ry
     estimated scf accuracy    <       0.00001200 Ry

     iteration #  3     ecut=    40.00 Ry     beta= 0.50
     Davidson diagonalization with overlap
     ethr =  3.75E-08,  avg # of iterations =  2.0

     total cpu time spent up to now is     2471.5 secs

     total energy              =     -91.13622795 Ry
     Harris-Foulkes estimate   =     -91.13622880 Ry
     estimated scf accuracy    <       0.00000250 Ry

     iteration #  4     ecut=    40.00 Ry     beta= 0.50
     Davidson diagonalization with overlap
     ethr =  7.81E-09,  avg # of iterations =  2.0

     total cpu time spent up to now is     2482.3 secs

     total energy              =     -91.13622793 Ry
     Harris-Foulkes estimate   =     -91.13622818 Ry
     estimated scf accuracy    <       0.00000058 Ry

     iteration #  5     ecut=    40.00 Ry     beta= 0.50
     Davidson diagonalization with overlap
     ethr =  1.81E-09,  avg # of iterations =  2.0

     total cpu time spent up to now is     2494.7 secs

     total energy              =     -91.13622806 Ry
     Harris-Foulkes estimate   =     -91.13622807 Ry
     estimated scf accuracy    <       0.00000003 Ry

     iteration #  6     ecut=    40.00 Ry     beta= 0.50
     Davidson diagonalization with overlap
