
     Program PWSCF v.6.5 starts on  8Jul2022 at  6:56:40 

     This program is part of the open-source Quantum ESPRESSO suite
     for quantum simulation of materials; please cite
         "P. Giannozzi et al., J. Phys.:Condens. Matter 21 395502 (2009);
         "P. Giannozzi et al., J. Phys.:Condens. Matter 29 465901 (2017);
          URL http://www.quantum-espresso.org", 
     in publications or presentations arising from this work. More details at
     http://www.quantum-espresso.org/quote

     Parallel version (MPI), running on    96 processors

     MPI processes distributed on     2 nodes
     R & G space division:  proc/nbgrp/npool/nimage =      96
     Waiting for input...
     Reading input from standard input
     Message from routine read_cards :
     DEPRECATED: no units specified in CELL_PARAMETERS card

     Current dimensions of program PWSCF are:
     Max number of different atomic species (ntypx) = 10
     Max number of k-points (npk) =  40000
     Max angular momentum in pseudopotentials (lmaxx) =  3

     Subspace diagonalization in iterative solution of the eigenvalue problem:
     one sub-group per band group will be used
     scalapack distributed-memory algorithm (size of sub-group:  9*  9 procs)

 
     Parallelization info
     --------------------
     sticks:   dense  smooth     PW     G-vecs:    dense   smooth      PW
     Min          15      15      5                  197      197      33
     Max          16      16      6                  200      200      37
     Sum        1519    1519    483                19043    19043    3395
 


     bravais-lattice index     =            0
     lattice parameter (alat)  =      12.8987  a.u.
     unit-cell volume          =     556.2002 (a.u.)^3
     number of atoms/cell      =            8
     number of atomic types    =            1
     number of electrons       =        32.00
     number of Kohn-Sham states=           20
     kinetic-energy cutoff     =      40.0000  Ry
     charge density cutoff     =     160.0000  Ry
     convergence threshold     =      1.0E-06
     mixing beta               =       0.5000
     number of iterations used =            8  plain     mixing
     Exchange-correlation=  SLA  PW   PBE  PBE
                           (   1   4   3   4   0   0   0)
     nstep                     =          250


     celldm(1)=  12.898713  celldm(2)=   0.000000  celldm(3)=   0.000000
     celldm(4)=   0.000000  celldm(5)=   0.000000  celldm(6)=   0.000000

     crystal axes: (cart. coord. in units of alat)
               a(1) = (   0.999867  -0.016296   0.000287 )  
               a(2) = (   0.001078   0.718126   0.000504 )  
               a(3) = (   0.000132   0.000085   0.360943 )  

     reciprocal axes: (cart. coord. in units 2 pi/alat)
               b(1) = (  1.000108 -0.001501 -0.000365 )  
               b(2) = (  0.022695  1.392480 -0.000337 )  
               b(3) = ( -0.000826 -0.001943  2.770521 )  


     PseudoPot. # 1 for C  read from file:
     ./C.pbe-van_bm.upf
     MD5 check sum: 1a69bf6b8db32088f5b2163dbdb77a27
     Pseudo is Ultrasoft, Zval =  4.0
     Generated by new atomic code, or converted to UPF format
     Using radial grid of  721 points,  4 beta functions with: 
                l(1) =   0
                l(2) =   0
                l(3) =   1
                l(4) =   1
     Q(r) pseudized with  8 coefficients,  rinner =    0.800   0.800   0.800


     atomic species   valence    mass     pseudopotential
        C              4.00    12.00000     C ( 1.00)

     No symmetry found



   Cartesian axes

     site n.     atom                  positions (alat units)
         1           C   tau(   1) = (   0.2791636   0.5017807   0.1753856  )
         2           C   tau(   2) = (   0.3986322   0.4842182   0.3558584  )
         3           C   tau(   3) = (   0.0904720   0.5917220   0.1752430  )
         4           C   tau(   4) = (   0.5203077   0.3054626   0.3558321  )
         5           C   tau(   5) = (   0.5522916  -0.0756278  -0.0054215  )
         6           C   tau(   6) = (   0.0180347   0.6596661   0.3557058  )
         7           C   tau(   7) = (   0.5689864   0.2240261   0.1753130  )
         8           C   tau(   8) = (   0.5915123   0.0124006   0.1750822  )

     number of k points=    12  Marzari-Vanderbilt smearing, width (Ry)=  0.0200
                       cart. coord. in units 2pi/alat
        k(    1) = (   0.0000000   0.0000000   0.0000000), wk =   0.1250000
        k(    2) = (  -0.0002066  -0.0004857   0.6926304), wk =   0.2500000
        k(    3) = (   0.0004132   0.0009715  -1.3852607), wk =   0.1250000
        k(    4) = (  -0.0113476  -0.6962398   0.0001686), wk =   0.1250000
        k(    5) = (  -0.0115542  -0.6967256   0.6927990), wk =   0.2500000
        k(    6) = (  -0.0109344  -0.6952684  -1.3850921), wk =   0.1250000
        k(    7) = (  -0.5000542   0.0007503   0.0001824), wk =   0.1250000
        k(    8) = (  -0.5002609   0.0002645   0.6928128), wk =   0.2500000
        k(    9) = (  -0.4996410   0.0017217  -1.3850783), wk =   0.1250000
        k(   10) = (  -0.5114019  -0.6954896   0.0003511), wk =   0.1250000
        k(   11) = (  -0.5116085  -0.6959753   0.6929814), wk =   0.2500000
        k(   12) = (  -0.5109886  -0.6945181  -1.3849097), wk =   0.1250000

     Dense  grid:    19043 G-vectors     FFT dimensions: (  54,  40,  20)

     Estimated max dynamical RAM per process >       2.34 MB

     Estimated total dynamical RAM >     224.87 MB

     Initial potential from superposition of free atoms

     starting charge   31.99968, renormalised to   32.00000
     Starting wfcs are   32 randomized atomic wfcs

     total cpu time spent up to now is        0.7 secs

     Self-consistent Calculation

     iteration #  1     ecut=    40.00 Ry     beta= 0.50
     Davidson diagonalization with overlap
     ethr =  1.00E-02,  avg # of iterations =  2.3

     total cpu time spent up to now is        1.4 secs

     total energy              =     -90.60776725 Ry
     Harris-Foulkes estimate   =     -90.98116559 Ry
     estimated scf accuracy    <       0.78435871 Ry

     iteration #  2     ecut=    40.00 Ry     beta= 0.50
     Davidson diagonalization with overlap
     ethr =  2.45E-03,  avg # of iterations =  2.1

     total cpu time spent up to now is        2.0 secs

     total energy              =     -90.55631652 Ry
     Harris-Foulkes estimate   =     -90.70629074 Ry
     estimated scf accuracy    <       0.29726798 Ry

     iteration #  3     ecut=    40.00 Ry     beta= 0.50
     Davidson diagonalization with overlap
     ethr =  9.29E-04,  avg # of iterations =  2.3

     total cpu time spent up to now is        3.3 secs

     total energy              =     -90.57391679 Ry
     Harris-Foulkes estimate   =     -90.82372294 Ry
     estimated scf accuracy    <       1.15760001 Ry

     iteration #  4     ecut=    40.00 Ry     beta= 0.50
     Davidson diagonalization with overlap
     ethr =  9.29E-04,  avg # of iterations =  2.5

     total cpu time spent up to now is        4.3 secs

     total energy              =     -90.65600196 Ry
     Harris-Foulkes estimate   =     -90.68859963 Ry
     estimated scf accuracy    <       0.11206056 Ry

     iteration #  5     ecut=    40.00 Ry     beta= 0.50
     Davidson diagonalization with overlap
     ethr =  3.50E-04,  avg # of iterations =  1.3

     total cpu time spent up to now is        4.7 secs

     total energy              =     -90.66624506 Ry
     Harris-Foulkes estimate   =     -90.66951352 Ry
     estimated scf accuracy    <       0.02345886 Ry

     iteration #  6     ecut=    40.00 Ry     beta= 0.50
     Davidson diagonalization with overlap
     ethr =  7.33E-05,  avg # of iterations =  1.8

     total cpu time spent up to now is        5.2 secs

     total energy              =     -90.66751164 Ry
     Harris-Foulkes estimate   =     -90.66793446 Ry
     estimated scf accuracy    <       0.00223322 Ry

     iteration #  7     ecut=    40.00 Ry     beta= 0.50
     Davidson diagonalization with overlap
     ethr =  6.98E-06,  avg # of iterations =  3.8

     total cpu time spent up to now is        6.0 secs

     total energy              =     -90.66774701 Ry
     Harris-Foulkes estimate   =     -90.66817982 Ry
     estimated scf accuracy    <       0.00202512 Ry

     iteration #  8     ecut=    40.00 Ry     beta= 0.50
     Davidson diagonalization with overlap
     ethr =  6.33E-06,  avg # of iterations =  1.0

     total cpu time spent up to now is        6.4 secs

     total energy              =     -90.66794441 Ry
     Harris-Foulkes estimate   =     -90.66795143 Ry
     estimated scf accuracy    <       0.00006100 Ry

     iteration #  9     ecut=    40.00 Ry     beta= 0.50
     Davidson diagonalization with overlap
     ethr =  1.91E-07,  avg # of iterations =  2.2

     total cpu time spent up to now is        7.1 secs

     total energy              =     -90.66795762 Ry
     Harris-Foulkes estimate   =     -90.66795852 Ry
     estimated scf accuracy    <       0.00000683 Ry

     iteration # 10     ecut=    40.00 Ry     beta= 0.50
     Davidson diagonalization with overlap
     ethr =  2.13E-08,  avg # of iterations =  2.0

     total cpu time spent up to now is        7.6 secs

     End of self-consistent calculation

          k = 0.0000 0.0000 0.0000 (  2387 PWs)   bands (ev):

   -15.2880 -12.9466 -11.1451 -10.8136  -7.1473  -3.4171  -3.1000  -1.7763
    -1.4444  -0.0976  -0.0718   0.5417   0.8542   1.7698   3.5783   4.6314
     5.3009   8.3492   9.6148  10.6594

          k =-0.0002-0.0005 0.6926 (  2368 PWs)   bands (ev):

   -14.1648 -11.8739 -10.1244  -9.8181  -6.6402  -4.9978  -3.9446  -2.8049
    -2.2918  -2.1872  -1.8840  -0.3418   0.1191   1.0849   4.2733   4.9719
     5.3082   7.3434   9.7397  10.4034

          k = 0.0004 0.0010-1.3853 (  2374 PWs)   bands (ev):

   -11.1917 -10.6301  -9.1757  -8.1916  -7.1220  -6.8995  -6.8885  -6.6258
    -3.1939  -3.1777  -1.2268  -0.8435   2.3568   2.9039   3.5694   4.4584
     5.6423   6.3415   6.9385   8.1021

          k =-0.0113-0.6962 0.0002 (  2370 PWs)   bands (ev):

   -14.6930 -13.8074 -12.2795  -9.2887  -5.9154  -5.1127  -2.3934  -1.4172
    -1.1852  -0.8568  -0.4479   0.2467   0.9205   1.7939   2.2201   5.0694
     5.8705   9.3190  10.6567  11.4247

          k =-0.0116-0.6967 0.6928 (  2388 PWs)   bands (ev):

   -13.5713 -12.7261 -11.2355  -8.3152  -5.5297  -5.2318  -4.2334  -3.6341
    -3.3462  -1.4696  -1.0454  -0.9412   0.7596   1.6903   2.1841   4.9240
     5.3206   8.3114   9.8851  10.4548

          k =-0.0109-0.6953-1.3851 (  2374 PWs)   bands (ev):

   -10.7624  -9.9550  -9.7997  -9.2580  -8.0706  -7.7991  -5.4985  -5.4228
    -2.2951  -2.2093  -2.0745  -1.8781   2.1416   3.2274   4.3322   4.5024
     5.1272   5.7321   6.9380   7.4320

          k =-0.5001 0.0008 0.0002 (  2392 PWs)   bands (ev):

   -15.2769 -13.0052 -11.0495 -10.8474  -7.1085  -3.5374  -3.2284  -1.7724
    -1.1407  -0.2109  -0.1089   0.5411   0.8963   1.7801   3.5308   4.4961
     5.5082   8.5087   9.8317  10.6802

          k =-0.5003 0.0003 0.6928 (  2376 PWs)   bands (ev):

   -14.1542 -11.9282 -10.0377  -9.8491  -6.6128  -4.9982  -3.9809  -2.7882
    -2.4203  -2.0987  -1.9743  -0.1568   0.1283   0.9711   4.3395   4.6614
     5.6411   7.3320   9.6896  10.4838

          k =-0.4996 0.0017-1.3851 (  2378 PWs)   bands (ev):

   -11.1861 -10.6168  -9.2112  -8.2460  -7.0895  -6.8871  -6.8628  -6.6010
    -3.1850  -3.1791  -1.2523  -0.8339   2.4911   2.7809   3.1858   4.9248
     5.5757   6.2907   6.9146   8.1070

          k =-0.5114-0.6955 0.0004 (  2392 PWs)   bands (ev):

   -14.6798 -13.8056 -12.3479  -9.1474  -5.8960  -5.3275  -2.1914  -1.5348
    -1.1865  -0.8470  -0.4966   0.2266   0.8489   2.0371   2.2327   4.8997
     5.9172   9.5287  10.7746  11.3669

          k =-0.5116-0.6960 0.6930 (  2362 PWs)   bands (ev):

   -13.5587 -12.7242 -11.2981  -8.1899  -5.5718  -5.2352  -4.2174  -3.7482
    -3.3777  -1.3068  -1.0688  -0.9720   0.7380   1.5838   2.3022   4.7551
     5.5596   8.3588   9.7830  10.3894

          k =-0.5110-0.6945-1.3849 (  2376 PWs)   bands (ev):

   -10.7565  -9.9302  -9.8113  -9.2546  -8.1223  -7.8496  -5.4146  -5.3415
    -2.3279  -2.2255  -2.1059  -1.8949   2.1717   3.2198   3.8490   4.9903
     5.2413   5.6108   6.8054   7.5555

     the Fermi energy is     5.1232 ev

!    total energy              =     -90.66795832 Ry
     Harris-Foulkes estimate   =     -90.66795858 Ry
     estimated scf accuracy    <       0.00000056 Ry

     The total energy is the sum of the following terms:

     one-electron contribution =     -72.78446318 Ry
     hartree contribution      =      50.14088502 Ry
     xc contribution           =     -27.89233636 Ry
     ewald contribution        =     -40.13187163 Ry
     smearing contrib. (-TS)   =      -0.00017217 Ry

     convergence has been achieved in  10 iterations

     Forces acting on atoms (cartesian axes, Ry/au):

     atom    1 type  1   force =    -0.00879319   -0.00303081   -0.00002314
     atom    2 type  1   force =    -0.03011395    0.00578411   -0.00002081
     atom    3 type  1   force =     0.02795179   -0.02129653    0.00028077
     atom    4 type  1   force =     0.01412362    0.00643150   -0.00060671
     atom    5 type  1   force =     0.00356358   -0.00678236    0.00034069
     atom    6 type  1   force =    -0.02038665    0.01962769    0.00029744
     atom    7 type  1   force =     0.01168449   -0.04801801   -0.00003907
     atom    8 type  1   force =     0.00197031    0.04728440   -0.00022918

     Total force =     0.089692     Total SCF correction =     0.001133


     Computing stress (Cartesian axis) and pressure

          total   stress  (Ry/bohr**3)                   (kbar)     P=       87.89
  -0.00007935   0.00003499  -0.00000485          -11.67        5.15       -0.71
   0.00003499   0.00128814  -0.00000785            5.15      189.49       -1.16
  -0.00000485  -0.00000785   0.00058356           -0.71       -1.16       85.84


     BFGS Geometry Optimization

     number of scf cycles    =   1
     number of bfgs steps    =   0

     enthalpy new            =     -90.6679205141 Ry

     new trust radius        =       0.1519479014 bohr
     new conv_thr            =       0.0000010000 Ry

     new unit-cell volume =    581.32857 a.u.^3 (    86.14401 Ang^3 )
     density =      1.85053 g/cm^3

CELL_PARAMETERS (bohr)
  12.871207787  -0.205688980   0.002232334
   0.021973563   9.561193467   0.004774861
   0.001133394   0.000223013   4.723613335

ATOMIC_POSITIONS (crystal)
C             0.2776955688        0.7046533379        0.4847000502
C             0.3954834268        0.6837624387        0.9846395894
C             0.0916997262        0.8237051084        0.4843517238
C             0.5208703509        0.4377581789        0.9846848108
C             0.5527440831       -0.0934999277       -0.0152560290
C             0.0153340190        0.9209440276        0.9842562369
C             0.5695595502        0.3196427794        0.4848010919
C             0.5916412750        0.0357410568        0.4844995259



     Writing output data file ./pp.save/
     NEW-OLD atomic charge density approx. for the potential
     extrapolated charge   33.38321, renormalised to   32.00000

     total cpu time spent up to now is        7.9 secs

     Self-consistent Calculation

     iteration #  1     ecut=    40.00 Ry     beta= 0.50
     Davidson diagonalization with overlap
     ethr =  1.00E-06,  avg # of iterations = 10.3

     total cpu time spent up to now is       10.2 secs

     total energy              =     -89.91023268 Ry
     Harris-Foulkes estimate   =     -88.08222852 Ry
     estimated scf accuracy    <       0.90685444 Ry

     iteration #  2     ecut=    40.00 Ry     beta= 0.50
     Davidson diagonalization with overlap
     ethr =  2.83E-03,  avg # of iterations =  5.2

     total cpu time spent up to now is       11.4 secs

     total energy              =     -90.11370973 Ry
     Harris-Foulkes estimate   =     -92.08587720 Ry
     estimated scf accuracy    <       9.67794877 Ry

     iteration #  3     ecut=    40.00 Ry     beta= 0.50
     Davidson diagonalization with overlap
     ethr =  2.83E-03,  avg # of iterations =  3.9

     total cpu time spent up to now is       12.3 secs

     total energy              =     -90.70522305 Ry
     Harris-Foulkes estimate   =     -90.80232502 Ry
     estimated scf accuracy    <       1.12400561 Ry

     iteration #  4     ecut=    40.00 Ry     beta= 0.50
     Davidson diagonalization with overlap
     ethr =  2.83E-03,  avg # of iterations =  1.0

     total cpu time spent up to now is       12.7 secs

     total energy              =     -90.69883582 Ry
     Harris-Foulkes estimate   =     -90.73093059 Ry
     estimated scf accuracy    <       0.32766233 Ry

     iteration #  5     ecut=    40.00 Ry     beta= 0.50
     Davidson diagonalization with overlap
     ethr =  1.02E-03,  avg # of iterations =  1.0

     total cpu time spent up to now is       13.1 secs

     total energy              =     -90.68939904 Ry
     Harris-Foulkes estimate   =     -90.70472923 Ry
     estimated scf accuracy    <       0.15543962 Ry

     iteration #  6     ecut=    40.00 Ry     beta= 0.50
     Davidson diagonalization with overlap
     ethr =  4.86E-04,  avg # of iterations =  1.6

     total cpu time spent up to now is       13.6 secs

     total energy              =     -90.68868274 Ry
     Harris-Foulkes estimate   =     -90.69278543 Ry
     estimated scf accuracy    <       0.05771109 Ry

     iteration #  7     ecut=    40.00 Ry     beta= 0.50
     Davidson diagonalization with overlap
     ethr =  1.80E-04,  avg # of iterations =  2.2

     total cpu time spent up to now is       14.2 secs

     total energy              =     -90.68787788 Ry
     Harris-Foulkes estimate   =     -90.68969597 Ry
     estimated scf accuracy    <       0.03225621 Ry

     iteration #  8     ecut=    40.00 Ry     beta= 0.50
     Davidson diagonalization with overlap
     ethr =  1.01E-04,  avg # of iterations =  2.1

     total cpu time spent up to now is       14.7 secs

     total energy              =     -90.68457082 Ry
     Harris-Foulkes estimate   =     -90.68825143 Ry
     estimated scf accuracy    <       0.02101602 Ry

     iteration #  9     ecut=    40.00 Ry     beta= 0.50
     Davidson diagonalization with overlap
     ethr =  6.57E-05,  avg # of iterations =  1.5

     total cpu time spent up to now is       15.2 secs

     total energy              =     -90.68593852 Ry
     Harris-Foulkes estimate   =     -90.68596332 Ry
     estimated scf accuracy    <       0.00155282 Ry

     iteration # 10     ecut=    40.00 Ry     beta= 0.50
     Davidson diagonalization with overlap
     ethr =  4.85E-06,  avg # of iterations =  4.4

     total cpu time spent up to now is       16.1 secs

     total energy              =     -90.68582881 Ry
     Harris-Foulkes estimate   =     -90.68604634 Ry
     estimated scf accuracy    <       0.00124645 Ry

     iteration # 11     ecut=    40.00 Ry     beta= 0.50
     Davidson diagonalization with overlap
     ethr =  3.90E-06,  avg # of iterations =  2.2

     total cpu time spent up to now is       16.7 secs

     total energy              =     -90.68582446 Ry
     Harris-Foulkes estimate   =     -90.68603911 Ry
     estimated scf accuracy    <       0.00132898 Ry

     iteration # 12     ecut=    40.00 Ry     beta= 0.50
     Davidson diagonalization with overlap
     ethr =  3.90E-06,  avg # of iterations =  1.0

     total cpu time spent up to now is       17.2 secs

     total energy              =     -90.68581941 Ry
     Harris-Foulkes estimate   =     -90.68590889 Ry
     estimated scf accuracy    <       0.00053558 Ry

     iteration # 13     ecut=    40.00 Ry     beta= 0.50
     Davidson diagonalization with overlap
     ethr =  1.67E-06,  avg # of iterations =  1.2

     total cpu time spent up to now is       17.7 secs

     total energy              =     -90.68587081 Ry
     Harris-Foulkes estimate   =     -90.68587506 Ry
     estimated scf accuracy    <       0.00007009 Ry

     iteration # 14     ecut=    40.00 Ry     beta= 0.50
     Davidson diagonalization with overlap
     ethr =  2.19E-07,  avg # of iterations =  2.0

     total cpu time spent up to now is       18.3 secs

     total energy              =     -90.68586554 Ry
     Harris-Foulkes estimate   =     -90.68587426 Ry
     estimated scf accuracy    <       0.00006664 Ry

     iteration # 15     ecut=    40.00 Ry     beta= 0.50
     Davidson diagonalization with overlap
     ethr =  2.08E-07,  avg # of iterations =  1.0

     total cpu time spent up to now is       18.7 secs

     total energy              =     -90.68586834 Ry
     Harris-Foulkes estimate   =     -90.68586843 Ry
     estimated scf accuracy    <       0.00004643 Ry

     iteration # 16     ecut=    40.00 Ry     beta= 0.50
     Davidson diagonalization with overlap
     ethr =  1.45E-07,  avg # of iterations =  1.0

     total cpu time spent up to now is       19.2 secs

     total energy              =     -90.68586778 Ry
     Harris-Foulkes estimate   =     -90.68586864 Ry
     estimated scf accuracy    <       0.00005311 Ry

     iteration # 17     ecut=    40.00 Ry     beta= 0.50
     Davidson diagonalization with overlap
     ethr =  1.45E-07,  avg # of iterations =  1.0

     total cpu time spent up to now is       19.8 secs

     total energy              =     -90.68586737 Ry
     Harris-Foulkes estimate   =     -90.68586797 Ry
     estimated scf accuracy    <       0.00004415 Ry

     iteration # 18     ecut=    40.00 Ry     beta= 0.50
     Davidson diagonalization with overlap
     ethr =  1.38E-07,  avg # of iterations =  1.0

     total cpu time spent up to now is       20.2 secs

     total energy              =     -90.68585642 Ry
     Harris-Foulkes estimate   =     -90.68586748 Ry
     estimated scf accuracy    <       0.00003952 Ry

     iteration # 19     ecut=    40.00 Ry     beta= 0.50
     Davidson diagonalization with overlap
     ethr =  1.23E-07,  avg # of iterations =  2.0

     total cpu time spent up to now is       20.9 secs

     total energy              =     -90.68586098 Ry
     Harris-Foulkes estimate   =     -90.68586158 Ry
     estimated scf accuracy    <       0.00000374 Ry

     iteration # 20     ecut=    40.00 Ry     beta= 0.50
     Davidson diagonalization with overlap
     ethr =  1.17E-08,  avg # of iterations =  2.0

     total cpu time spent up to now is       21.5 secs

     End of self-consistent calculation

          k = 0.0000 0.0000 0.0000 (  2387 PWs)   bands (ev):

   -15.2445 -13.1329 -11.2490 -10.9423  -7.3252  -3.7074  -3.3482  -1.8270
    -1.6564  -0.2964  -0.2273   0.2878   0.5589   1.3839   3.0836   4.2122
     4.8227   7.6017   9.2178  10.0721

          k =-0.0001-0.0003 0.6827 (  2368 PWs)   bands (ev):

   -14.1480 -12.0869 -10.2529  -9.9545  -6.8846  -5.0037  -4.3191  -3.0109
    -2.4566  -2.4009  -2.1405  -0.5684  -0.3421   0.8556   3.7797   4.5203
     4.8775   6.7169   9.1331   9.8470

          k = 0.0002 0.0007-1.3653 (  2374 PWs)   bands (ev):

   -11.2174 -10.7594  -9.5556  -8.3183  -7.2500  -7.0232  -6.9853  -6.8384
    -3.5078  -3.3637  -1.6929  -1.0878   1.9116   2.4667   3.3356   4.0185
     5.2990   6.0309   6.2910   7.7061

          k =-0.0108-0.6745 0.0000 (  2370 PWs)   bands (ev):

   -14.7459 -13.8284 -12.3298  -9.5088  -6.1829  -5.4751  -2.6466  -1.6624
    -1.2008  -1.1044  -0.6183   0.2778   0.7490   1.2887   1.8363   4.5911
     5.3542   8.6225  10.1571  10.6987

          k =-0.0109-0.6749 0.6827 (  2388 PWs)   bands (ev):

   -13.6540 -12.7685 -11.3101  -8.5470  -5.8587  -5.5843  -4.2557  -3.8461
    -3.4737  -1.7184  -1.3780  -1.1807   0.5243   1.2314   1.9564   4.4375
     4.8907   7.5919   9.3017   9.8520

          k =-0.0105-0.6738-1.3653 (  2374 PWs)   bands (ev):

   -10.8653 -10.2527 -10.0083  -9.2517  -8.0948  -7.8589  -5.7486  -5.6763
    -2.6937  -2.5260  -2.4203  -2.1168   1.7190   2.7628   3.8874   4.1300
     4.7038   5.4177   6.6274   7.0524

          k =-0.5011 0.0012 0.0001 (  2392 PWs)   bands (ev):

   -15.2311 -13.1917 -11.1522 -10.9809  -7.2877  -3.8008  -3.4641  -1.8217
    -1.4092  -0.3760  -0.3109   0.3452   0.5569   1.3978   3.0672   4.0106
     5.0660   7.7617   9.2955  10.3477

          k =-0.5012 0.0008 0.6828 (  2376 PWs)   bands (ev):

   -14.1354 -12.1414 -10.1664  -9.9889  -6.8558  -5.0068  -4.3576  -2.9821
    -2.5428  -2.3884  -2.1805  -0.4943  -0.2417   0.7335   3.8415   4.1977
     5.2170   6.7145   9.0741   9.9070

          k =-0.5008 0.0018-1.3652 (  2378 PWs)   bands (ev):

   -11.2108 -10.7435  -9.5905  -8.3764  -7.2328  -6.9774  -6.9624  -6.8312
    -3.5023  -3.3558  -1.7218  -1.0764   2.0312   2.3594   2.9062   4.5377
     5.2295   5.9850   6.2502   7.7034

          k =-0.5118-0.6734 0.0002 (  2392 PWs)   bands (ev):

   -14.7316 -13.8271 -12.4036  -9.3625  -6.1683  -5.6717  -2.4528  -1.7721
    -1.2047  -1.0926  -0.6682   0.2533   0.5773   1.6108   1.8544   4.3934
     5.4289   8.8269  10.2441  10.7456

          k =-0.5120-0.6737 0.6828 (  2362 PWs)   bands (ev):

   -13.6404 -12.7672 -11.3776  -8.4155  -5.9090  -5.5882  -4.2358  -3.9489
    -3.5079  -1.5713  -1.3422  -1.2514   0.4960   1.1659   2.0185   4.2709
     5.1209   7.6650   9.1851   9.7804

          k =-0.5116-0.6727-1.3652 (  2376 PWs)   bands (ev):

   -10.8587 -10.2331 -10.0175  -9.2477  -8.1472  -7.9188  -5.6596  -5.5844
    -2.7241  -2.5602  -2.4362  -2.1358   1.7516   2.7524   3.4495   4.5729
     4.8268   5.2722   6.4894   7.1851

     the Fermi energy is     4.6763 ev

!    total energy              =     -90.68586085 Ry
     Harris-Foulkes estimate   =     -90.68586133 Ry
     estimated scf accuracy    <       0.00000076 Ry

     The total energy is the sum of the following terms:

     one-electron contribution =     -71.76806070 Ry
     hartree contribution      =      49.17656802 Ry
     xc contribution           =     -27.62421487 Ry
     ewald contribution        =     -40.47040027 Ry
     smearing contrib. (-TS)   =       0.00024698 Ry

     convergence has been achieved in  20 iterations

     Forces acting on atoms (cartesian axes, Ry/au):

     atom    1 type  1   force =     0.00036403    0.00334596   -0.00016753
     atom    2 type  1   force =     0.03108292   -0.01707302    0.00006773
     atom    3 type  1   force =    -0.01712731    0.00821600    0.00017781
     atom    4 type  1   force =     0.01589929   -0.01861511    0.00016124
     atom    5 type  1   force =     0.00774329    0.03913251   -0.00059429
     atom    6 type  1   force =     0.01222984   -0.00940030    0.00029474
     atom    7 type  1   force =    -0.02001766    0.01104053   -0.00062756
     atom    8 type  1   force =    -0.03017441   -0.01664657    0.00068787

     Total force =     0.075960     Total SCF correction =     0.001991


     Computing stress (Cartesian axis) and pressure

          total   stress  (Ry/bohr**3)                   (kbar)     P=      -19.88
  -0.00031112   0.00010153  -0.00000352          -45.77       14.94       -0.52
   0.00010153   0.00048386  -0.00000272           14.94       71.18       -0.40
  -0.00000352  -0.00000272  -0.00057818           -0.52       -0.40      -85.05


     number of scf cycles    =   2
     number of bfgs steps    =   1

     enthalpy old            =     -90.6679205141 Ry
     enthalpy new            =     -90.6858213275 Ry

     CASE: enthalpy_new < enthalpy_old

     new trust radius        =       0.1273507357 bohr
     new conv_thr            =       0.0000003913 Ry

     new unit-cell volume =    586.18084 a.u.^3 (    86.86304 Ang^3 )
     density =      1.83521 g/cm^3

CELL_PARAMETERS (bohr)
  12.752445421  -0.171657405   0.000294855
   0.049715301   9.812058268   0.003217569
   0.000433795  -0.000476072   4.684339822

ATOMIC_POSITIONS (crystal)
C             0.2774133645        0.7048755072        0.4846605676
C             0.3968560772        0.6821541487        0.9846535676
C             0.0913457534        0.8235749159        0.4844190206
C             0.5226162287        0.4360147091        0.9846624308
C             0.5534752156       -0.0893994652       -0.0153620362
C             0.0155715973        0.9208553005        0.9843504250
C             0.5684055022        0.3184982431        0.4846613183
C             0.5893442611        0.0361336408        0.4846317064



     Writing output data file ./pp.save/
     NEW-OLD atomic charge density approx. for the potential
     extrapolated charge   32.26489, renormalised to   32.00000

     total cpu time spent up to now is       21.6 secs

     Self-consistent Calculation

     iteration #  1     ecut=    40.00 Ry     beta= 0.50
     Davidson diagonalization with overlap
     ethr =  1.00E-06,  avg # of iterations =  8.4

     total cpu time spent up to now is       23.9 secs

     total energy              =     -90.66971941 Ry
     Harris-Foulkes estimate   =     -90.17890341 Ry
     estimated scf accuracy    <       0.03418288 Ry

     iteration #  2     ecut=    40.00 Ry     beta= 0.50
     Davidson diagonalization with overlap
     ethr =  1.07E-04,  avg # of iterations =  4.0

     total cpu time spent up to now is       25.0 secs

     total energy              =     -90.65395169 Ry
     Harris-Foulkes estimate   =     -90.78107763 Ry
     estimated scf accuracy    <       0.95940444 Ry

     iteration #  3     ecut=    40.00 Ry     beta= 0.50
     Davidson diagonalization with overlap
     ethr =  1.07E-04,  avg # of iterations =  3.2

     total cpu time spent up to now is       25.9 secs

     total energy              =     -90.69814370 Ry
     Harris-Foulkes estimate   =     -90.70134627 Ry
     estimated scf accuracy    <       0.03786729 Ry

     iteration #  4     ecut=    40.00 Ry     beta= 0.50
     Davidson diagonalization with overlap
     ethr =  1.07E-04,  avg # of iterations =  1.0

     total cpu time spent up to now is       26.4 secs

     total energy              =     -90.69766029 Ry
     Harris-Foulkes estimate   =     -90.69903541 Ry
     estimated scf accuracy    <       0.01435740 Ry

     iteration #  5     ecut=    40.00 Ry     beta= 0.50
     Davidson diagonalization with overlap
     ethr =  4.49E-05,  avg # of iterations =  1.0

     total cpu time spent up to now is       27.0 secs

     total energy              =     -90.69753711 Ry
     Harris-Foulkes estimate   =     -90.69802957 Ry
     estimated scf accuracy    <       0.00363960 Ry

     iteration #  6     ecut=    40.00 Ry     beta= 0.50
     Davidson diagonalization with overlap
     ethr =  1.14E-05,  avg # of iterations =  2.2

     total cpu time spent up to now is       27.7 secs

     total energy              =     -90.69767490 Ry
     Harris-Foulkes estimate   =     -90.69773735 Ry
     estimated scf accuracy    <       0.00024176 Ry

     iteration #  7     ecut=    40.00 Ry     beta= 0.50
     Davidson diagonalization with overlap
     ethr =  7.55E-07,  avg # of iterations =  3.4

     total cpu time spent up to now is       28.8 secs

     total energy              =     -90.69773118 Ry
     Harris-Foulkes estimate   =     -90.69774039 Ry
     estimated scf accuracy    <       0.00003714 Ry

     iteration #  8     ecut=    40.00 Ry     beta= 0.50
     Davidson diagonalization with overlap
     ethr =  1.16E-07,  avg # of iterations =  1.8

     total cpu time spent up to now is       29.5 secs

     total energy              =     -90.69773091 Ry
     Harris-Foulkes estimate   =     -90.69773820 Ry
     estimated scf accuracy    <       0.00004744 Ry

     iteration #  9     ecut=    40.00 Ry     beta= 0.50
     Davidson diagonalization with overlap
     ethr =  1.16E-07,  avg # of iterations =  1.0

     total cpu time spent up to now is       30.1 secs

     total energy              =     -90.69773366 Ry
     Harris-Foulkes estimate   =     -90.69773396 Ry
     estimated scf accuracy    <       0.00000181 Ry

     iteration # 10     ecut=    40.00 Ry     beta= 0.50
     Davidson diagonalization with overlap
     ethr =  5.65E-09,  avg # of iterations =  2.2

     total cpu time spent up to now is       30.9 secs

     End of self-consistent calculation

          k = 0.0000 0.0000 0.0000 (  2387 PWs)   bands (ev):

   -15.2307 -13.2806 -11.3907 -11.1363  -7.3014  -3.8330  -3.4222  -1.7449
    -1.7246  -0.3758  -0.3415   0.2893   0.4178   1.3721   2.6212   4.0803
     4.6433   7.7503   9.1087   9.8986

          k =-0.0000-0.0002 0.6884 (  2368 PWs)   bands (ev):

   -14.1145 -12.2186 -10.3684 -10.1319  -6.7911  -5.0068  -4.3540  -3.0797
    -2.5812  -2.4664  -2.2652  -0.5970  -0.3462   0.7148   3.4172   4.3407
     4.7801   6.8989   9.0009   9.8065

          k = 0.0000 0.0005-1.3768 (  2374 PWs)   bands (ev):

   -11.0551 -10.7331  -9.5995  -8.4657  -7.4158  -7.1969  -7.1004  -6.9355
    -3.5696  -3.2499  -1.8239  -1.1294   1.8461   2.5029   3.4268   3.9126
     5.1860   5.9608   5.9799   7.5818

          k =-0.0088-0.6572-0.0001 (  2370 PWs)   bands (ev):

   -14.7942 -13.8637 -12.4565  -9.7368  -6.2629  -5.5716  -2.7623  -1.7036
    -1.1706  -1.0623  -0.7534   0.2170   0.5991   1.1785   1.7395   4.4452
     5.2768   8.5777  10.1629  10.5319

          k =-0.0089-0.6575 0.6883 (  2388 PWs)   bands (ev):

   -13.6810 -12.7879 -11.4179  -8.7660  -5.8629  -5.4993  -4.3259  -3.9609
    -3.5102  -1.8006  -1.5145  -1.2764   0.4108   1.1824   1.8257   4.3260
     4.8066   7.5511   9.3139   9.8058

          k =-0.0088-0.6568-1.3769 (  2374 PWs)   bands (ev):

   -10.7092 -10.3390  -9.9360  -9.3023  -8.1853  -7.9857  -5.9472  -5.8666
    -2.8472  -2.6052  -2.4598  -2.0477   1.6722   2.7763   3.7411   4.1459
     4.5711   5.3664   6.5200   6.9687

          k =-0.5057 0.0026 0.0000 (  2392 PWs)   bands (ev):

   -15.2142 -13.3442 -11.2971 -11.1704  -7.2621  -3.8970  -3.5591  -1.7187
    -1.4976  -0.5386  -0.3570   0.3447   0.4172   1.3844   2.6036   3.8410
     4.9438   7.9102   9.1227  10.3180

          k =-0.5057 0.0023 0.6884 (  2376 PWs)   bands (ev):

   -14.0988 -12.2776 -10.2840 -10.1625  -6.7620  -5.0077  -4.3923  -3.0529
    -2.6812  -2.4137  -2.3192  -0.5054  -0.2635   0.5767   3.4466   4.0553
     5.1083   6.9048   8.9293   9.8886

          k =-0.5057 0.0030-1.3767 (  2378 PWs)   bands (ev):

   -11.0463 -10.7142  -9.6389  -8.5259  -7.4003  -7.1846  -7.0544  -6.9159
    -3.5671  -3.2376  -1.8479  -1.1202   1.9453   2.4168   2.9477   4.4984
     5.1287   5.8954   5.9041   7.5912

          k =-0.5145-0.6547-0.0000 (  2392 PWs)   bands (ev):

   -14.7776 -13.8617 -12.5388  -9.5892  -6.2517  -5.7545  -2.5695  -1.8105
    -1.1741  -1.0501  -0.8210   0.1918   0.4635   1.4483   1.7570   4.2707
     5.3448   8.8418  10.2310  10.5926

          k =-0.5146-0.6549 0.6884 (  2362 PWs)   bands (ev):

   -13.6651 -12.7859 -11.4936  -8.6337  -5.9104  -5.5045  -4.3103  -4.0486
    -3.5487  -1.6439  -1.4693  -1.3606   0.3685   1.1341   1.8617   4.1661
     5.0209   7.6560   9.1982   9.7252

          k =-0.5145-0.6542-1.3768 (  2376 PWs)   bands (ev):

   -10.7005 -10.3221  -9.9420  -9.2973  -8.2407  -8.0529  -5.8587  -5.7744
    -2.8938  -2.6179  -2.4657  -2.0718   1.7106   2.7576   3.3979   4.4279
     4.7609   5.2053   6.3962   7.0829

     the Fermi energy is     4.5491 ev

!    total energy              =     -90.69773391 Ry
     Harris-Foulkes estimate   =     -90.69773397 Ry
     estimated scf accuracy    <       0.00000011 Ry

     The total energy is the sum of the following terms:

     one-electron contribution =     -72.60347774 Ry
     hartree contribution      =      49.50635021 Ry
     xc contribution           =     -27.62904275 Ry
     ewald contribution        =     -39.97226540 Ry
     smearing contrib. (-TS)   =       0.00070177 Ry

     convergence has been achieved in  10 iterations

     Forces acting on atoms (cartesian axes, Ry/au):

     atom    1 type  1   force =     0.01564336   -0.00396488   -0.00012605
     atom    2 type  1   force =     0.04918977   -0.00990493   -0.00006283
     atom    3 type  1   force =    -0.02118816    0.00951455    0.00006365
     atom    4 type  1   force =     0.00248447   -0.00519770   -0.00010749
     atom    5 type  1   force =    -0.01149976    0.01465925    0.00013522
     atom    6 type  1   force =     0.00880069   -0.00693359    0.00021756
     atom    7 type  1   force =    -0.01321637   -0.01825484   -0.00001181
     atom    8 type  1   force =    -0.03021400    0.02008214   -0.00010825

     Total force =     0.075151     Total SCF correction =     0.000475


     Computing stress (Cartesian axis) and pressure

          total   stress  (Ry/bohr**3)                   (kbar)     P=      -17.01
  -0.00034862   0.00008274  -0.00000159          -51.28       12.17       -0.23
   0.00008274   0.00010206  -0.00000170           12.17       15.01       -0.25
  -0.00000159  -0.00000170  -0.00010030           -0.23       -0.25      -14.75


     number of scf cycles    =   3
     number of bfgs steps    =   2

     enthalpy old            =     -90.6858213275 Ry
     enthalpy new            =     -90.6976940630 Ry

     CASE: enthalpy_new < enthalpy_old

     new trust radius        =       0.1990957214 bohr
     new conv_thr            =       0.0000004919 Ry

     new unit-cell volume =    588.86016 a.u.^3 (    87.26007 Ang^3 )
     density =      1.82686 g/cm^3

CELL_PARAMETERS (bohr)
  12.409295306  -0.086408044  -0.003148211
   0.114700580  10.209558575   0.000308864
  -0.000850303  -0.001831058   4.647550653

ATOMIC_POSITIONS (crystal)
C             0.2790413143        0.7042211757        0.4845693205
C             0.4041523009        0.6789179449        0.9846353247
C             0.0888547436        0.8245148892        0.4845331343
C             0.5250803191        0.4334818587        0.9845531032
C             0.5527228431       -0.0826209314       -0.0153922571
C             0.0164524588        0.9201200622        0.9845515293
C             0.5657593490        0.3117255244        0.4845278219
C             0.5829646712        0.0423464765        0.4846990233



     Writing output data file ./pp.save/
     NEW-OLD atomic charge density approx. for the potential
     extrapolated charge   32.14560, renormalised to   32.00000

     total cpu time spent up to now is       31.0 secs

     Self-consistent Calculation

     iteration #  1     ecut=    40.00 Ry     beta= 0.50
     Davidson diagonalization with overlap
     c_bands:  1 eigenvalues not converged
     ethr =  1.00E-06,  avg # of iterations =  9.5

     total cpu time spent up to now is       34.1 secs

     total energy              =     -90.70283807 Ry
     Harris-Foulkes estimate   =     -90.42696703 Ry
     estimated scf accuracy    <       0.01596270 Ry

     iteration #  2     ecut=    40.00 Ry     beta= 0.50
     Davidson diagonalization with overlap
     ethr =  4.99E-05,  avg # of iterations =  3.7

     total cpu time spent up to now is       35.5 secs

     total energy              =     -90.69380612 Ry
     Harris-Foulkes estimate   =     -90.73476865 Ry
     estimated scf accuracy    <       0.30958028 Ry

     iteration #  3     ecut=    40.00 Ry     beta= 0.50
     Davidson diagonalization with overlap
     ethr =  4.99E-05,  avg # of iterations =  2.6

     total cpu time spent up to now is       36.5 secs

     total energy              =     -90.71099769 Ry
     Harris-Foulkes estimate   =     -90.71232533 Ry
     estimated scf accuracy    <       0.00388463 Ry

     iteration #  4     ecut=    40.00 Ry     beta= 0.50
     Davidson diagonalization with overlap
     ethr =  1.21E-05,  avg # of iterations =  2.7

     total cpu time spent up to now is       37.6 secs

     total energy              =     -90.71131124 Ry
     Harris-Foulkes estimate   =     -90.71210620 Ry
     estimated scf accuracy    <       0.00408498 Ry

     iteration #  5     ecut=    40.00 Ry     beta= 0.50
     Davidson diagonalization with overlap
     ethr =  1.21E-05,  avg # of iterations =  1.1

     total cpu time spent up to now is       38.3 secs

     total energy              =     -90.71170166 Ry
     Harris-Foulkes estimate   =     -90.71182077 Ry
     estimated scf accuracy    <       0.00048357 Ry

     iteration #  6     ecut=    40.00 Ry     beta= 0.50
     Davidson diagonalization with overlap
     ethr =  1.51E-06,  avg # of iterations =  2.3

     total cpu time spent up to now is       39.3 secs

     total energy              =     -90.71176988 Ry
     Harris-Foulkes estimate   =     -90.71178899 Ry
     estimated scf accuracy    <       0.00008436 Ry

     iteration #  7     ecut=    40.00 Ry     beta= 0.50
     Davidson diagonalization with overlap
     ethr =  2.64E-07,  avg # of iterations =  2.0

     total cpu time spent up to now is       40.2 secs

     total energy              =     -90.71178250 Ry
     Harris-Foulkes estimate   =     -90.71178714 Ry
     estimated scf accuracy    <       0.00003474 Ry

     iteration #  8     ecut=    40.00 Ry     beta= 0.50
     Davidson diagonalization with overlap
     ethr =  1.09E-07,  avg # of iterations =  1.0

     total cpu time spent up to now is       40.9 secs

     total energy              =     -90.71178499 Ry
     Harris-Foulkes estimate   =     -90.71178511 Ry
     estimated scf accuracy    <       0.00000194 Ry

     iteration #  9     ecut=    40.00 Ry     beta= 0.50
     Davidson diagonalization with overlap
     ethr =  6.07E-09,  avg # of iterations =  2.1

     total cpu time spent up to now is       42.0 secs

     End of self-consistent calculation

          k = 0.0000 0.0000 0.0000 (  2387 PWs)   bands (ev):

   -15.2048 -13.4063 -11.6052 -11.2644  -7.2326  -3.9440  -3.4376  -1.8549
    -1.4979  -0.5240  -0.4307   0.0669   0.5931   1.3864   2.0889   4.0780
     4.6289   7.7849   9.0844   9.9125

          k = 0.0002-0.0000 0.6938 (  2368 PWs)   bands (ev):

   -14.0683 -12.3298 -10.5610 -10.2360  -6.6692  -4.8997  -4.3955  -3.1102
    -2.7080  -2.5310  -2.2366  -0.6888  -0.4002   0.5861   2.9671   4.2852
     4.8007   7.0294   9.0463   9.8220

          k =-0.0004 0.0000-1.3877 (  2374 PWs)   bands (ev):

   -10.8765 -10.7026  -9.6416  -8.5836  -7.5408  -7.2954  -7.1739  -7.0442
    -3.6694  -3.0175  -1.9864  -1.2306   1.8052   2.4727   3.5874   3.8772
     5.0016   5.7019   6.0265   7.5712

          k =-0.0044-0.6316-0.0002 (  2370 PWs)   bands (ev):

   -14.8189 -13.9463 -12.5347  -9.8534  -6.5668  -5.6213  -2.8789  -1.6858
    -0.9857  -0.9548  -0.8445   0.1900   0.6010   0.8884   1.8186   4.4214
     5.1515   8.4763  10.1308  10.4165

          k =-0.0042-0.6317 0.6936 (  2388 PWs)   bands (ev):

   -13.6848 -12.8510 -11.4822  -8.8709  -5.9309  -5.5639  -4.3035  -3.9812
    -3.5449  -1.8674  -1.4999  -1.2991   0.3314   0.8601   1.8656   4.3017
     4.7762   7.3832   9.6098   9.8156

          k =-0.0048-0.6316-1.3879 (  2374 PWs)   bands (ev):

   -10.5502 -10.3743  -9.9366  -9.3177  -8.2023  -8.1156  -6.0409  -5.9102
    -3.0329  -2.8000  -2.5741  -1.9625   1.6319   2.7485   3.5544   4.1907
     4.5182   5.3956   6.6661   6.8608

          k =-0.5197 0.0058-0.0001 (  2392 PWs)   bands (ev):

   -15.1817 -13.4825 -11.5064 -11.3073  -7.1638  -3.9686  -3.6318  -1.6261
    -1.4881  -0.7045  -0.4520   0.1782   0.5960   1.3967   2.0249   3.7851
     4.9988   7.9191   9.1080  10.4828

          k =-0.5195 0.0058 0.6938 (  2376 PWs)   bands (ev):

   -14.0461 -12.4010 -10.4702 -10.2757  -6.6197  -4.8908  -4.4413  -3.0706
    -2.8393  -2.4499  -2.3099  -0.6523  -0.2342   0.4281   2.9342   4.0174
     5.1372   7.0415   8.9849   9.9475

          k =-0.5200 0.0059-1.3878 (  2378 PWs)   bands (ev):

   -10.8628 -10.6775  -9.6902  -8.6559  -7.5031  -7.2652  -7.1495  -7.0448
    -3.6558  -2.9863  -2.0139  -1.2274   1.9117   2.3836   3.0332   4.5935
     5.0119   5.4549   5.9454   7.6057

          k =-0.5241-0.6258-0.0003 (  2392 PWs)   bands (ev):

   -14.7968 -13.9433 -12.6352  -9.6947  -6.5583  -5.7829  -2.6782  -1.8195
    -0.9901  -0.9480  -0.9394   0.1628   0.4713   1.1552   1.8357   4.2115
     5.2555   8.8063  10.1628  10.6845

          k =-0.5239-0.6258 0.6935 (  2362 PWs)   bands (ev):

   -13.6636 -12.8482 -11.5748  -8.7292  -5.9568  -5.5849  -4.2963  -4.0453
    -3.5932  -1.7148  -1.4497  -1.3843   0.2615   0.8940   1.8168   4.1177
     4.9705   7.5557   9.4987   9.7167

          k =-0.5244-0.6258-1.3880 (  2376 PWs)   bands (ev):

   -10.5370 -10.3535  -9.9444  -9.3095  -8.2673  -8.1970  -5.9447  -5.8153
    -3.0656  -2.8234  -2.5587  -1.9980   1.6829   2.7145   3.3441   4.2648
     4.7904   5.1896   6.5185   6.9903

     the Fermi energy is     4.5196 ev

!    total energy              =     -90.71178524 Ry
     Harris-Foulkes estimate   =     -90.71178528 Ry
     estimated scf accuracy    <       0.00000011 Ry

     The total energy is the sum of the following terms:

     one-electron contribution =     -72.82462366 Ry
     hartree contribution      =      49.55856418 Ry
     xc contribution           =     -27.64497505 Ry
     ewald contribution        =     -39.80226455 Ry
     smearing contrib. (-TS)   =       0.00151384 Ry

     convergence has been achieved in   9 iterations

     Forces acting on atoms (cartesian axes, Ry/au):

     atom    1 type  1   force =     0.02492788   -0.01305273   -0.00014819
     atom    2 type  1   force =     0.04174977    0.01281590   -0.00006758
     atom    3 type  1   force =    -0.00356112   -0.00425692   -0.00001747
     atom    4 type  1   force =     0.00596648   -0.01697380    0.00008325
     atom    5 type  1   force =    -0.01308363    0.00112521    0.00009129
     atom    6 type  1   force =    -0.00823966    0.00719802   -0.00000650
     atom    7 type  1   force =    -0.01843047    0.01320998    0.00022880
     atom    8 type  1   force =    -0.02932925   -0.00006566   -0.00016359

     Total force =     0.068704     Total SCF correction =     0.000759


     Computing stress (Cartesian axis) and pressure

          total   stress  (Ry/bohr**3)                   (kbar)     P=      -11.76
  -0.00035154   0.00002302   0.00000169          -51.71        3.39        0.25
   0.00002302  -0.00023992   0.00000239            3.39      -35.29        0.35
   0.00000169   0.00000239   0.00035157            0.25        0.35       51.72


     number of scf cycles    =   4
     number of bfgs steps    =   3

     enthalpy old            =     -90.6976940630 Ry
     enthalpy new            =     -90.7117452087 Ry

     CASE: enthalpy_new < enthalpy_old

     new trust radius        =       0.1522094502 bohr
     new conv_thr            =       0.0000004175 Ry

     new unit-cell volume =    586.51227 a.u.^3 (    86.91215 Ang^3 )
     density =      1.83417 g/cm^3

CELL_PARAMETERS (bohr)
  12.025533677  -0.016250178  -0.004829388
   0.166626042  10.451048661  -0.000976728
  -0.001574419  -0.002446981   4.666632450

ATOMIC_POSITIONS (crystal)
C             0.2820721226        0.7020861736        0.4844642057
C             0.4123177178        0.6787794275        0.9846006120
C             0.0871816355        0.8241882172        0.4846180675
C             0.5277070298        0.4287198096        0.9845228209
C             0.5514969270       -0.0772105920       -0.0154365673
C             0.0161755713        0.9208374448        0.9846893754
C             0.5621227910        0.3101654563        0.4844553409
C             0.5759542049        0.0451410628        0.4847631449



     Writing output data file ./pp.save/
     NEW-OLD atomic charge density approx. for the potential
     extrapolated charge   31.87190, renormalised to   32.00000

     total cpu time spent up to now is       42.1 secs

     Self-consistent Calculation

     iteration #  1     ecut=    40.00 Ry     beta= 0.50
     Davidson diagonalization with overlap
     c_bands:  1 eigenvalues not converged
     ethr =  1.00E-06,  avg # of iterations =  9.6

     total cpu time spent up to now is       45.9 secs

     total energy              =     -90.71026359 Ry
     Harris-Foulkes estimate   =     -90.96737629 Ry
     estimated scf accuracy    <       0.01729593 Ry

     iteration #  2     ecut=    40.00 Ry     beta= 0.50
     Davidson diagonalization with overlap
     ethr =  5.40E-05,  avg # of iterations =  3.4

     total cpu time spent up to now is       47.4 secs

     total energy              =     -90.70345399 Ry
     Harris-Foulkes estimate   =     -90.74760574 Ry
     estimated scf accuracy    <       0.27466997 Ry

     iteration #  3     ecut=    40.00 Ry     beta= 0.50
     Davidson diagonalization with overlap
     ethr =  5.40E-05,  avg # of iterations =  2.8

     total cpu time spent up to now is       48.8 secs

     total energy              =     -90.72035911 Ry
     Harris-Foulkes estimate   =     -90.72112270 Ry
     estimated scf accuracy    <       0.00438697 Ry

     iteration #  4     ecut=    40.00 Ry     beta= 0.50
     Davidson diagonalization with overlap
     ethr =  1.37E-05,  avg # of iterations =  1.9

     total cpu time spent up to now is       49.9 secs

     total energy              =     -90.72062516 Ry
     Harris-Foulkes estimate   =     -90.72072796 Ry
     estimated scf accuracy    <       0.00034574 Ry

     iteration #  5     ecut=    40.00 Ry     beta= 0.50
     Davidson diagonalization with overlap
     ethr =  1.08E-06,  avg # of iterations =  3.8

     total cpu time spent up to now is       51.5 secs

     total energy              =     -90.72071361 Ry
     Harris-Foulkes estimate   =     -90.72074185 Ry
     estimated scf accuracy    <       0.00015976 Ry

     iteration #  6     ecut=    40.00 Ry     beta= 0.50
     Davidson diagonalization with overlap
     ethr =  4.99E-07,  avg # of iterations =  1.8

     total cpu time spent up to now is       52.7 secs

     total energy              =     -90.72072617 Ry
     Harris-Foulkes estimate   =     -90.72073279 Ry
     estimated scf accuracy    <       0.00004991 Ry

     iteration #  7     ecut=    40.00 Ry     beta= 0.50
     Davidson diagonalization with overlap
     ethr =  1.56E-07,  avg # of iterations =  1.0

     total cpu time spent up to now is       53.6 secs

     total energy              =     -90.72072923 Ry
     Harris-Foulkes estimate   =     -90.72073033 Ry
     estimated scf accuracy    <       0.00000481 Ry

     iteration #  8     ecut=    40.00 Ry     beta= 0.50
     Davidson diagonalization with overlap
     ethr =  1.50E-08,  avg # of iterations =  2.2

     total cpu time spent up to now is       54.9 secs

     total energy              =     -90.72073002 Ry
     Harris-Foulkes estimate   =     -90.72073035 Ry
     estimated scf accuracy    <       0.00000145 Ry

     iteration #  9     ecut=    40.00 Ry     beta= 0.50
     Davidson diagonalization with overlap
     ethr =  4.53E-09,  avg # of iterations =  2.0

     total cpu time spent up to now is       56.1 secs

     End of self-consistent calculation

          k = 0.0000 0.0000 0.0000 (  2387 PWs)   bands (ev):

   -15.1291 -13.3218 -11.5937 -11.2260  -7.0171  -3.8566  -3.2926  -1.8260
    -1.5894  -0.4869  -0.4355   0.2547   0.3993   1.4140   1.7759   4.1983
     4.8031   7.9871   9.2127  10.0846

          k = 0.0003 0.0001 0.6910 (  2368 PWs)   bands (ev):

   -14.0016 -12.2573 -10.5566 -10.2054  -6.5167  -4.8980  -4.3443  -3.1686
    -2.6588  -2.5090  -2.1847  -0.6844  -0.1789   0.6445   2.6890   4.3308
     4.9401   7.2082   9.1741   9.8413

          k =-0.0006-0.0001-1.3820 (  2374 PWs)   bands (ev):

   -10.8019 -10.6925  -9.6085  -8.5368  -7.6180  -7.3525  -7.1443  -6.9756
    -3.5790  -2.6807  -1.8821  -1.2603   1.8148   2.5061   3.5921   3.9520
     4.8745   5.7199   6.0775   7.5866

          k =-0.0008-0.6171-0.0003 (  2370 PWs)   bands (ev):

   -14.7537 -13.9135 -12.4110  -9.7479  -6.6136  -5.5171  -2.8167  -1.5034
    -1.1423  -0.9886  -0.6863   0.0999   0.6751   0.9828   1.7968   4.5053
     5.2444   8.5516   9.9545  10.5856

          k =-0.0006-0.6170 0.6907 (  2388 PWs)   bands (ev):

   -13.6266 -12.8295 -11.3712  -8.7792  -5.9299  -5.5750  -4.3894  -3.9339
    -3.5010  -1.7880  -1.4885  -1.1109   0.4352   0.7739   1.9530   4.3448
     4.8843   7.3345   9.7551   9.9507

          k =-0.0014-0.6172-1.3823 (  2374 PWs)   bands (ev):

   -10.4674 -10.3739  -9.9268  -9.3606  -8.1588  -8.0340  -5.9822  -5.8635
    -2.9963  -2.7377  -2.5566  -1.8007   1.6232   2.8258   3.4175   4.2109
     4.5415   5.5530   6.6310   6.9257

          k =-0.5363 0.0086-0.0002 (  2392 PWs)   bands (ev):

   -15.0992 -13.4117 -11.5197 -11.2450  -6.9158  -3.8463  -3.5501  -1.5922
    -1.5782  -0.6297  -0.5099   0.3994   0.4176   1.4269   1.6527   3.8854
     5.1934   8.0863   9.2540  10.8109

          k =-0.5360 0.0086 0.6908 (  2376 PWs)   bands (ev):

   -13.9728 -12.3413 -10.4905 -10.2210  -6.4481  -4.8869  -4.3866  -3.1402
    -2.7680  -2.4408  -2.2756  -0.6201  -0.0057   0.4817   2.5943   4.0812
     5.2687   7.2129   9.1377   9.9573

          k =-0.5368 0.0084-1.3822 (  2378 PWs)   bands (ev):

   -10.7833 -10.6615  -9.6658  -8.6211  -7.5979  -7.3373  -7.1005  -6.9614
    -3.5559  -2.6275  -1.9158  -1.2584   1.9366   2.4113   3.0456   4.7033
     4.9773   5.2802   5.9740   7.6445

          k =-0.5371-0.6085-0.0005 (  2392 PWs)   bands (ev):

   -14.7244 -13.9099 -12.5379  -9.5649  -6.6043  -5.6690  -2.6005  -1.6477
    -1.1456  -0.9691  -0.8432   0.0644   0.5818   1.2216   1.8172   4.2705
     5.3495   8.9149  10.0717  10.7984

          k =-0.5369-0.6085 0.6905 (  2362 PWs)   bands (ev):

   -13.5985 -12.8262 -11.4885  -8.6153  -5.9474  -5.5948  -4.3834  -3.9931
    -3.5646  -1.6204  -1.4370  -1.1991   0.3412   0.8358   1.8700   4.1475
     5.0422   7.5524   9.6833   9.8131

          k =-0.5377-0.6087-1.3825 (  2376 PWs)   bands (ev):

   -10.4490 -10.3473  -9.9358  -9.3505  -8.2397  -8.1385  -5.8705  -5.7539
    -3.0284  -2.7650  -2.5351  -1.8285   1.6898   2.7786   3.2824   4.1863
     4.8495   5.2801   6.5905   6.9339

     the Fermi energy is     4.5813 ev

!    total energy              =     -90.72073022 Ry
     Harris-Foulkes estimate   =     -90.72073028 Ry
     estimated scf accuracy    <       0.00000011 Ry

     The total energy is the sum of the following terms:

     one-electron contribution =     -70.84579649 Ry
     hartree contribution      =      48.59802498 Ry
     xc contribution           =     -27.62298571 Ry
     ewald contribution        =     -40.85232798 Ry
     smearing contrib. (-TS)   =       0.00235498 Ry

     convergence has been achieved in   9 iterations

     Forces acting on atoms (cartesian axes, Ry/au):

     atom    1 type  1   force =     0.02493437   -0.01100355   -0.00003117
     atom    2 type  1   force =     0.02708099    0.00916930   -0.00009823
     atom    3 type  1   force =    -0.00825022   -0.00382691   -0.00008156
     atom    4 type  1   force =     0.00009503    0.02004785    0.00008375
     atom    5 type  1   force =    -0.00951865   -0.01664306    0.00038129
     atom    6 type  1   force =    -0.00935828    0.00674624   -0.00017055
     atom    7 type  1   force =    -0.00712278   -0.01869856    0.00045174
     atom    8 type  1   force =    -0.01786047    0.01420868   -0.00053528

     Total force =     0.058886     Total SCF correction =     0.000802


     Computing stress (Cartesian axis) and pressure

          total   stress  (Ry/bohr**3)                   (kbar)     P=      -22.06
  -0.00022961  -0.00001017   0.00000334          -33.78       -1.50        0.49
  -0.00001017  -0.00041943   0.00000397           -1.50      -61.70        0.58
   0.00000334   0.00000397   0.00019919            0.49        0.58       29.30


     number of scf cycles    =   5
     number of bfgs steps    =   4

     enthalpy old            =     -90.7117452087 Ry
     enthalpy new            =     -90.7206903536 Ry

     CASE: enthalpy_new < enthalpy_old

     new trust radius        =       0.1239815070 bohr
     new conv_thr            =       0.0000002708 Ry

     new unit-cell volume =    574.90886 a.u.^3 (    85.19270 Ang^3 )
     density =      1.87119 g/cm^3

CELL_PARAMETERS (bohr)
  11.719794321   0.023196797  -0.004273007
   0.193781337  10.477646884  -0.000515453
  -0.001515795  -0.002198318   4.681997905

ATOMIC_POSITIONS (crystal)
C             0.2856367057        0.6996475294        0.4843959353
C             0.4188621369        0.6798529825        0.9845544999
C             0.0854212327        0.8234838627        0.4846496506
C             0.5294290995        0.4291435338        0.9845470218
C             0.5504379064       -0.0760959747       -0.0154003203
C             0.0153720151        0.9219994097        0.9847169824
C             0.5592996034        0.3073912504        0.4845068807
C             0.5705693002        0.0472844064        0.4847063495



     Writing output data file ./pp.save/
     NEW-OLD atomic charge density approx. for the potential
     extrapolated charge   31.35415, renormalised to   32.00000

     total cpu time spent up to now is       56.2 secs

     Self-consistent Calculation

     iteration #  1     ecut=    40.00 Ry     beta= 0.50
     Davidson diagonalization with overlap
     ethr =  1.00E-06,  avg # of iterations =  9.9

     total cpu time spent up to now is       61.2 secs

     total energy              =     -90.55029040 Ry
     Harris-Foulkes estimate   =     -91.93143380 Ry
     estimated scf accuracy    <       0.22743178 Ry

     iteration #  2     ecut=    40.00 Ry     beta= 0.50
     Davidson diagonalization with overlap
     ethr =  7.11E-04,  avg # of iterations =  3.6

     total cpu time spent up to now is       63.2 secs

     total energy              =     -90.67708907 Ry
     Harris-Foulkes estimate   =     -91.04632834 Ry
     estimated scf accuracy    <       1.63253558 Ry

     iteration #  3     ecut=    40.00 Ry     beta= 0.50
     Davidson diagonalization with overlap
     ethr =  7.11E-04,  avg # of iterations =  2.6

     total cpu time spent up to now is       64.8 secs

     total energy              =     -90.71780722 Ry
     Harris-Foulkes estimate   =     -90.75437536 Ry
     estimated scf accuracy    <       0.23641294 Ry

     iteration #  4     ecut=    40.00 Ry     beta= 0.50
     Davidson diagonalization with overlap
     ethr =  7.11E-04,  avg # of iterations =  1.0

     total cpu time spent up to now is       65.9 secs

     total energy              =     -90.72881100 Ry
     Harris-Foulkes estimate   =     -90.72940121 Ry
     estimated scf accuracy    <       0.02287448 Ry

     iteration #  5     ecut=    40.00 Ry     beta= 0.50
     Davidson diagonalization with overlap
     ethr =  7.15E-05,  avg # of iterations =  2.8

     total cpu time spent up to now is       67.5 secs

     total energy              =     -90.72803843 Ry
     Harris-Foulkes estimate   =     -90.72951902 Ry
     estimated scf accuracy    <       0.02467979 Ry

     iteration #  6     ecut=    40.00 Ry     beta= 0.50
     Davidson diagonalization with overlap
     ethr =  7.15E-05,  avg # of iterations =  1.6

     total cpu time spent up to now is       68.7 secs

     total energy              =     -90.72530687 Ry
     Harris-Foulkes estimate   =     -90.72831453 Ry
     estimated scf accuracy    <       0.01583106 Ry

     iteration #  7     ecut=    40.00 Ry     beta= 0.50
     Davidson diagonalization with overlap
     ethr =  4.95E-05,  avg # of iterations =  1.2

     total cpu time spent up to now is       69.9 secs

     total energy              =     -90.72677366 Ry
     Harris-Foulkes estimate   =     -90.72678675 Ry
     estimated scf accuracy    <       0.00021498 Ry

     iteration #  8     ecut=    40.00 Ry     beta= 0.50
     Davidson diagonalization with overlap
     ethr =  6.72E-07,  avg # of iterations =  5.3

     total cpu time spent up to now is       72.9 secs

     total energy              =     -90.72682780 Ry
     Harris-Foulkes estimate   =     -90.72687498 Ry
     estimated scf accuracy    <       0.00055011 Ry

     iteration #  9     ecut=    40.00 Ry     beta= 0.50
     Davidson diagonalization with overlap
     ethr =  6.72E-07,  avg # of iterations =  1.0

     total cpu time spent up to now is       74.0 secs

     total energy              =     -90.72679880 Ry
     Harris-Foulkes estimate   =     -90.72683711 Ry
     estimated scf accuracy    <       0.00020043 Ry

     iteration # 10     ecut=    40.00 Ry     beta= 0.50
     Davidson diagonalization with overlap
     ethr =  6.26E-07,  avg # of iterations =  1.5

     total cpu time spent up to now is       75.3 secs

     total energy              =     -90.72681743 Ry
     Harris-Foulkes estimate   =     -90.72681969 Ry
     estimated scf accuracy    <       0.00001214 Ry

     iteration # 11     ecut=    40.00 Ry     beta= 0.50
     Davidson diagonalization with overlap
     ethr =  3.79E-08,  avg # of iterations =  2.0

     total cpu time spent up to now is       76.8 secs

     total energy              =     -90.72681781 Ry
     Harris-Foulkes estimate   =     -90.72681870 Ry
     estimated scf accuracy    <       0.00000417 Ry

     iteration # 12     ecut=    40.00 Ry     beta= 0.50
     Davidson diagonalization with overlap
     ethr =  1.30E-08,  avg # of iterations =  1.1

     total cpu time spent up to now is       78.1 secs

     total energy              =     -90.72681771 Ry
     Harris-Foulkes estimate   =     -90.72681803 Ry
     estimated scf accuracy    <       0.00000112 Ry

     iteration # 13     ecut=    40.00 Ry     beta= 0.50
     Davidson diagonalization with overlap
     ethr =  3.49E-09,  avg # of iterations =  2.1

     total cpu time spent up to now is       79.8 secs

     End of self-consistent calculation

          k = 0.0000 0.0000 0.0000 (  2387 PWs)   bands (ev):

   -15.0598 -13.1026 -11.4635 -11.0546  -6.8278  -3.7159  -3.0369  -1.6592
    -1.5139  -0.3374  -0.2206   0.3763   0.6305   1.5306   1.8950   4.4419
     5.1453   8.1202   9.5052  10.5102

          k = 0.0003 0.0000 0.6887 (  2368 PWs)   bands (ev):

   -13.9380 -12.0455 -10.4280 -10.0421  -6.3889  -4.7655  -4.1821  -3.0790
    -2.4586  -2.3719  -1.9428  -0.5792   0.0222   0.8388   2.8014   4.5427
     5.2089   7.3536   9.5096  10.0204

          k =-0.0005-0.0001-1.3775 (  2374 PWs)   bands (ev):

   -10.7819 -10.6186  -9.4439  -8.3162  -7.5086  -7.1600  -6.9826  -6.8263
    -3.4233  -2.4728  -1.6521  -1.2355   1.9633   2.6137   3.7142   4.1555
     4.9772   5.9851   6.2901   7.8693

          k = 0.0012-0.6156-0.0003 (  2370 PWs)   bands (ev):

   -14.6844 -13.7810 -12.1937  -9.4435  -6.6557  -5.3279  -2.6606  -1.3221
    -1.0003  -0.9166  -0.3717   0.2609   0.9514   1.1563   2.0075   4.7363
     5.4468   8.7138  10.0675  10.9151

          k = 0.0015-0.6155 0.6885 (  2388 PWs)   bands (ev):

   -13.5627 -12.7021 -11.1636  -8.4811  -5.9444  -5.5295  -4.2365  -3.7759
    -3.3330  -1.6398  -1.2396  -0.8939   0.6868   0.7787   2.2544   4.5350
     5.1295   7.3972   9.8977  10.3556

          k = 0.0007-0.6156-1.3778 (  2374 PWs)   bands (ev):

   -10.4655 -10.2693  -9.8296  -9.2291  -7.9860  -7.8256  -5.7041  -5.5791
    -2.9302  -2.6013  -2.5198  -1.6582   1.7242   3.0095   3.4787   4.3589
     4.7591   5.8532   6.7858   7.2242

          k =-0.5503 0.0102-0.0002 (  2392 PWs)   bands (ev):

   -15.0258 -13.2073 -11.3749 -11.0881  -6.6881  -3.6579  -3.3878  -1.4996
    -1.4229  -0.4152  -0.3678   0.6020   0.6332   1.5462   1.7086   4.1088
     5.5540   8.2078   9.5689  11.1648

          k =-0.5501 0.0102 0.6886 (  2376 PWs)   bands (ev):

   -13.9053 -12.1437 -10.3452 -10.0742  -6.2980  -4.7409  -4.2358  -3.0460
    -2.5780  -2.2729  -2.0904  -0.5171   0.2432   0.6819   2.6507   4.2809
     5.5577   7.3580   9.4795  10.1348

          k =-0.5508 0.0101-1.3777 (  2378 PWs)   bands (ev):

   -10.7605 -10.5832  -9.5099  -8.4184  -7.4835  -7.1330  -6.9346  -6.8253
    -3.3831  -2.3979  -1.6985  -1.2312   2.1167   2.4976   3.1596   4.9330
     5.1120   5.4430   6.1763   7.9361

          k =-0.5491-0.6054-0.0005 (  2392 PWs)   bands (ev):

   -14.6498 -13.7778 -12.3422  -9.2316  -6.6472  -5.4761  -2.4272  -1.4785
    -0.9964  -0.9023  -0.5895   0.2194   0.8332   1.4614   2.0324   4.4392
     5.5681   9.0705  10.2293  10.9274

          k =-0.5488-0.6054 0.6883 (  2362 PWs)   bands (ev):

   -13.5292 -12.6993 -11.3008  -8.2910  -5.9535  -5.5516  -4.2308  -3.8391
    -3.4067  -1.4702  -1.1673  -0.9967   0.5741   0.8460   2.1711   4.3113
     5.2620   7.6505   9.8163  10.2277

          k =-0.5496-0.6054-1.3779 (  2376 PWs)   bands (ev):

   -10.4439 -10.2344  -9.8433  -9.2188  -8.0817  -7.9474  -5.5728  -5.4527
    -2.9533  -2.5808  -2.5652  -1.6731   1.8032   2.9543   3.3547   4.3483
     5.0306   5.5429   6.8955   7.0642

     the Fermi energy is     4.7973 ev

!    total energy              =     -90.72681782 Ry
     Harris-Foulkes estimate   =     -90.72681787 Ry
     estimated scf accuracy    <       0.00000008 Ry

     The total energy is the sum of the following terms:

     one-electron contribution =     -68.36236984 Ry
     hartree contribution      =      47.56176810 Ry
     xc contribution           =     -27.65648691 Ry
     ewald contribution        =     -42.27202988 Ry
     smearing contrib. (-TS)   =       0.00230071 Ry

     convergence has been achieved in  13 iterations

     Forces acting on atoms (cartesian axes, Ry/au):

     atom    1 type  1   force =     0.00129257   -0.00161962    0.00012518
     atom    2 type  1   force =     0.01628752    0.00447620   -0.00008156
     atom    3 type  1   force =    -0.00619480   -0.00429467   -0.00012117
     atom    4 type  1   force =     0.01086114    0.00083070    0.00008636
     atom    5 type  1   force =     0.00137171   -0.00999286    0.00007539
     atom    6 type  1   force =    -0.01135267    0.00418634   -0.00018474
     atom    7 type  1   force =    -0.00447508    0.01184977    0.00029338
     atom    8 type  1   force =    -0.00779039   -0.00543585   -0.00019284

     Total force =     0.031050     Total SCF correction =     0.000573


     Computing stress (Cartesian axis) and pressure

          total   stress  (Ry/bohr**3)                   (kbar)     P=      -13.62
  -0.00007687  -0.00002028   0.00000329          -11.31       -2.98        0.48
  -0.00002028  -0.00021760   0.00000366           -2.98      -32.01        0.54
   0.00000329   0.00000366   0.00001668            0.48        0.54        2.45


     number of scf cycles    =   6
     number of bfgs steps    =   5

     enthalpy old            =     -90.7206903536 Ry
     enthalpy new            =     -90.7267787378 Ry

     CASE: enthalpy_new < enthalpy_old

     new trust radius        =       0.0509552678 bohr
     new conv_thr            =       0.0000001629 Ry

     new unit-cell volume =    565.67598 a.u.^3 (    83.82453 Ang^3 )
     density =      1.90173 g/cm^3

CELL_PARAMETERS (bohr)
  11.595326728   0.026237376  -0.002335947
   0.194847357  10.402333996   0.000811154
  -0.000916247  -0.001491377   4.689994850

ATOMIC_POSITIONS (crystal)
C             0.2868440242        0.6986498182        0.4844161803
C             0.4224476549        0.6810936039        0.9845084798
C             0.0842403774        0.8225627543        0.4846212473
C             0.5309209478        0.4294643494        0.9845809029
C             0.5501918231       -0.0776341560       -0.0153594659
C             0.0140376302        0.9229599014        0.9846647183
C             0.5580662029        0.3088184377        0.4846136919
C             0.5682793397        0.0467922911        0.4846312455



     Writing output data file ./pp.save/
     NEW-OLD atomic charge density approx. for the potential
     extrapolated charge   31.47771, renormalised to   32.00000

     total cpu time spent up to now is       79.9 secs

     Self-consistent Calculation

     iteration #  1     ecut=    40.00 Ry     beta= 0.50
     Davidson diagonalization with overlap
     ethr =  1.00E-06,  avg # of iterations =  9.0

     total cpu time spent up to now is       85.5 secs

     total energy              =     -90.62370161 Ry
     Harris-Foulkes estimate   =     -91.67910089 Ry
     estimated scf accuracy    <       0.13201516 Ry

     iteration #  2     ecut=    40.00 Ry     beta= 0.50
     Davidson diagonalization with overlap
     ethr =  4.13E-04,  avg # of iterations =  3.7

     total cpu time spent up to now is       88.2 secs

     total energy              =     -90.68282413 Ry
     Harris-Foulkes estimate   =     -90.93160709 Ry
     estimated scf accuracy    <       1.19112396 Ry

     iteration #  3     ecut=    40.00 Ry     beta= 0.50
     Davidson diagonalization with overlap
     ethr =  4.13E-04,  avg # of iterations =  2.6

     total cpu time spent up to now is       90.3 secs

     total energy              =     -90.72677270 Ry
     Harris-Foulkes estimate   =     -90.74256044 Ry
     estimated scf accuracy    <       0.12438346 Ry

     iteration #  4     ecut=    40.00 Ry     beta= 0.50
     Davidson diagonalization with overlap
     ethr =  3.89E-04,  avg # of iterations =  1.0

     total cpu time spent up to now is       91.6 secs

     total energy              =     -90.72956112 Ry
     Harris-Foulkes estimate   =     -90.73085822 Ry
     estimated scf accuracy    <       0.02409081 Ry

     iteration #  5     ecut=    40.00 Ry     beta= 0.50
     Davidson diagonalization with overlap
     ethr =  7.53E-05,  avg # of iterations =  3.5

     total cpu time spent up to now is       93.8 secs

     total energy              =     -90.72875241 Ry
     Harris-Foulkes estimate   =     -90.72991862 Ry
     estimated scf accuracy    <       0.01606954 Ry

     iteration #  6     ecut=    40.00 Ry     beta= 0.50
     Davidson diagonalization with overlap
     ethr =  5.02E-05,  avg # of iterations =  1.0

     total cpu time spent up to now is       95.2 secs

     total energy              =     -90.72787558 Ry
     Harris-Foulkes estimate   =     -90.72900666 Ry
     estimated scf accuracy    <       0.00698113 Ry

     iteration #  7     ecut=    40.00 Ry     beta= 0.50
     Davidson diagonalization with overlap
     ethr =  2.18E-05,  avg # of iterations =  2.3

     total cpu time spent up to now is       97.1 secs

     total energy              =     -90.72825906 Ry
     Harris-Foulkes estimate   =     -90.72830666 Ry
     estimated scf accuracy    <       0.00042025 Ry

     iteration #  8     ecut=    40.00 Ry     beta= 0.50
     Davidson diagonalization with overlap
     ethr =  1.31E-06,  avg # of iterations =  4.4

     total cpu time spent up to now is       99.9 secs

     total energy              =     -90.72831267 Ry
     Harris-Foulkes estimate   =     -90.72832290 Ry
     estimated scf accuracy    <       0.00004933 Ry

     iteration #  9     ecut=    40.00 Ry     beta= 0.50
     Davidson diagonalization with overlap
     ethr =  1.54E-07,  avg # of iterations =  2.0

     total cpu time spent up to now is      101.7 secs

     total energy              =     -90.72831478 Ry
     Harris-Foulkes estimate   =     -90.72831787 Ry
     estimated scf accuracy    <       0.00000705 Ry

     iteration # 10     ecut=    40.00 Ry     beta= 0.50
     Davidson diagonalization with overlap
     ethr =  2.20E-08,  avg # of iterations =  2.1

     total cpu time spent up to now is      103.8 secs

     total energy              =     -90.72831641 Ry
     Harris-Foulkes estimate   =     -90.72831699 Ry
     estimated scf accuracy    <       0.00000268 Ry

     iteration # 11     ecut=    40.00 Ry     beta= 0.50
     Davidson diagonalization with overlap
     ethr =  8.38E-09,  avg # of iterations =  1.3

     total cpu time spent up to now is      105.3 secs

     End of self-consistent calculation

          k = 0.0000 0.0000 0.0000 (  2387 PWs)   bands (ev):

   -15.0152 -12.9179 -11.3321 -10.9498  -6.7077  -3.5790  -2.8503  -1.4962
    -1.4881  -0.1744  -0.0607   0.5666   0.6784   1.7169   2.0072   4.5956
     5.3586   8.2780   9.7094  10.8465

          k = 0.0001-0.0001 0.6876 (  2368 PWs)   bands (ev):

   -13.8967 -11.8653 -10.2993  -9.9432  -6.3024  -4.7020  -4.0068  -3.0320
    -2.2878  -2.2341  -1.7805  -0.4435   0.2224   0.9840   2.9169   4.7016
     5.3869   7.5196   9.7542  10.1619

          k =-0.0003 0.0001-1.3751 (  2374 PWs)   bands (ev):

   -10.7900 -10.5445  -9.2826  -8.1419  -7.4277  -7.0436  -6.8659  -6.6777
    -3.2810  -2.3678  -1.4042  -1.1971   2.0994   2.7599   3.8401   4.2927
     5.1013   6.1786   6.4192   8.0718

          k = 0.0014-0.6200-0.0002 (  2370 PWs)   bands (ev):

   -14.6326 -13.6625 -12.0558  -9.2135  -6.5889  -5.2002  -2.5208  -1.2438
    -0.9538  -0.8404  -0.1620   0.3616   1.1878   1.3592   2.2062   4.8946
     5.6125   8.9115  10.2469  10.9445

          k = 0.0015-0.6201 0.6874 (  2388 PWs)   bands (ev):

   -13.5132 -12.5883 -11.0310  -8.2552  -5.8695  -5.4756  -4.1680  -3.6574
    -3.2042  -1.5091  -1.0342  -0.7791   0.8412   0.9500   2.4321   4.6874
     5.3121   7.5447  10.0145  10.5744

          k = 0.0011-0.6199-1.3753 (  2374 PWs)   bands (ev):

   -10.4748 -10.1668  -9.7132  -9.1526  -7.8914  -7.6641  -5.4814  -5.3733
    -2.7720  -2.5869  -2.3374  -1.6016   1.8306   3.1988   3.5807   4.4766
     4.9182   6.0497   6.9039   7.4157

          k =-0.5562 0.0104-0.0001 (  2392 PWs)   bands (ev):

   -14.9803 -13.0297 -11.2682 -10.9544  -6.5518  -3.4933  -3.2621  -1.4825
    -1.2263  -0.2568  -0.2036   0.6757   0.7988   1.7374   1.8054   4.2441
     5.7882   8.3863   9.7943  11.2935

          k =-0.5561 0.0104 0.6875 (  2376 PWs)   bands (ev):

   -13.8631 -11.9699 -10.2411  -9.9471  -6.2044  -4.6728  -4.0629  -3.0015
    -2.3953  -2.1373  -1.9608  -0.3499   0.4424   0.8300   2.7398   4.4232
     5.7657   7.5330   9.7061  10.2768

          k =-0.5565 0.0105-1.3752 (  2378 PWs)   bands (ev):

   -10.7685 -10.5076  -9.3530  -8.2459  -7.4294  -7.0317  -6.7911  -6.6592
    -3.2357  -2.2847  -1.4573  -1.1865   2.2662   2.6373   3.2434   5.0874
     5.2441   5.6314   6.3021   8.1369

          k =-0.5548-0.6096-0.0003 (  2392 PWs)   bands (ev):

   -14.5959 -13.6585 -12.2161  -8.9802  -6.5774  -5.3576  -2.2778  -1.4095
    -0.9555  -0.8168  -0.4022   0.3136   1.0249   1.7320   2.2345   4.5642
     5.7508   9.2661  10.3841  10.9951

          k =-0.5547-0.6097 0.6873 (  2362 PWs)   bands (ev):

   -13.4777 -12.5847 -11.1792  -8.0456  -5.8731  -5.5035  -4.1578  -3.7326
    -3.2819  -1.3238  -0.9544  -0.8985   0.7669   0.9607   2.3588   4.4404
     5.4623   7.8088   9.9299  10.4447

          k =-0.5551-0.6095-1.3754 (  2376 PWs)   bands (ev):

   -10.4525 -10.1283  -9.7266  -9.1428  -7.9968  -7.7948  -5.3362  -5.2347
    -2.7937  -2.5678  -2.3936  -1.6073   1.9144   3.1435   3.4273   4.4834
     5.1680   5.7517   7.0624   7.1926

     the Fermi energy is     4.9554 ev

!    total energy              =     -90.72831664 Ry
     Harris-Foulkes estimate   =     -90.72831669 Ry
     estimated scf accuracy    <       0.00000012 Ry

     The total energy is the sum of the following terms:

     one-electron contribution =     -66.78225118 Ry
     hartree contribution      =      46.94877326 Ry
     xc contribution           =     -27.69647059 Ry
     ewald contribution        =     -43.20039894 Ry
     smearing contrib. (-TS)   =       0.00203081 Ry

     convergence has been achieved in  11 iterations

     Forces acting on atoms (cartesian axes, Ry/au):

     atom    1 type  1   force =    -0.00339562    0.00097760    0.00011054
     atom    2 type  1   force =    -0.00256882   -0.00455235    0.00004289
     atom    3 type  1   force =    -0.00782021   -0.00072739   -0.00004134
     atom    4 type  1   force =     0.01010355    0.00751426    0.00017555
     atom    5 type  1   force =     0.00868792    0.00559284   -0.00023034
     atom    6 type  1   force =    -0.01055906   -0.00007983   -0.00014863
     atom    7 type  1   force =     0.00471405   -0.01053624   -0.00010464
     atom    8 type  1   force =     0.00083819    0.00181111    0.00019597

     Total force =     0.024813     Total SCF correction =     0.000414


     Computing stress (Cartesian axis) and pressure

          total   stress  (Ry/bohr**3)                   (kbar)     P=       -0.01
   0.00001362  -0.00000454   0.00000194            2.00       -0.67        0.28
  -0.00000454   0.00003578   0.00000182           -0.67        5.26        0.27
   0.00000194   0.00000182  -0.00004966            0.28        0.27       -7.31


     number of scf cycles    =   7
     number of bfgs steps    =   6

     enthalpy old            =     -90.7267787378 Ry
     enthalpy new            =     -90.7282781872 Ry

     CASE: enthalpy_new < enthalpy_old

     new trust radius        =       0.0131400078 bohr
     new conv_thr            =       0.0000001056 Ry

     new unit-cell volume =    564.84143 a.u.^3 (    83.70086 Ang^3 )
     density =      1.90454 g/cm^3

CELL_PARAMETERS (bohr)
  11.565151815   0.028484966  -0.001620453
   0.196965058  10.420109285   0.001187004
  -0.000688687  -0.001262299   4.687304273

ATOMIC_POSITIONS (crystal)
C             0.2868727574        0.6985373210        0.4844357083
C             0.4230938342        0.6807268952        0.9845111100
C             0.0835639976        0.8222840081        0.4846166534
C             0.5319329479        0.4300093256        0.9846116094
C             0.5506767017       -0.0768695064       -0.0154056957
C             0.0131675757        0.9230999118        0.9846398963
C             0.5580208567        0.3078341530        0.4846028048
C             0.5676993288        0.0470848917        0.4846649135



     Writing output data file ./pp.save/
     NEW-OLD atomic charge density approx. for the potential
     extrapolated charge   31.95272, renormalised to   32.00000

     total cpu time spent up to now is      105.4 secs

     Self-consistent Calculation

     iteration #  1     ecut=    40.00 Ry     beta= 0.50
     Davidson diagonalization with overlap
     ethr =  1.00E-06,  avg # of iterations =  4.3

     total cpu time spent up to now is      109.3 secs

     total energy              =     -90.72831212 Ry
     Harris-Foulkes estimate   =     -90.81363670 Ry
     estimated scf accuracy    <       0.00048504 Ry

     iteration #  2     ecut=    40.00 Ry     beta= 0.50
     Davidson diagonalization with overlap
     ethr =  1.52E-06,  avg # of iterations =  3.4

     total cpu time spent up to now is      112.2 secs

     total energy              =     -90.72817369 Ry
     Harris-Foulkes estimate   =     -90.72962804 Ry
     estimated scf accuracy    <       0.01035696 Ry

     iteration #  3     ecut=    40.00 Ry     beta= 0.50
     Davidson diagonalization with overlap
     ethr =  1.52E-06,  avg # of iterations =  2.9

     total cpu time spent up to now is      114.6 secs

     total energy              =     -90.72870838 Ry
     Harris-Foulkes estimate   =     -90.72875585 Ry
     estimated scf accuracy    <       0.00029822 Ry

     iteration #  4     ecut=    40.00 Ry     beta= 0.50
     Davidson diagonalization with overlap
     ethr =  9.32E-07,  avg # of iterations =  1.0

     total cpu time spent up to now is      116.1 secs

     total energy              =     -90.72870678 Ry
     Harris-Foulkes estimate   =     -90.72872479 Ry
     estimated scf accuracy    <       0.00012996 Ry

     iteration #  5     ecut=    40.00 Ry     beta= 0.50
     Davidson diagonalization with overlap
     ethr =  4.06E-07,  avg # of iterations =  1.0

     total cpu time spent up to now is      117.6 secs

     total energy              =     -90.72870849 Ry
     Harris-Foulkes estimate   =     -90.72871377 Ry
     estimated scf accuracy    <       0.00002015 Ry

[...]

     one-electron contribution =     -49.92801806 Ry
     hartree contribution      =      38.72281048 Ry
     xc contribution           =     -27.96551203 Ry
     ewald contribution        =     -51.99313595 Ry
     smearing contrib. (-TS)   =       0.00046441 Ry

     convergence has been achieved in   6 iterations

     Forces acting on atoms (cartesian axes, Ry/au):

     atom    1 type  1   force =    -0.00040821    0.00124312   -0.00171918
     atom    2 type  1   force =     0.00043792   -0.00099897    0.00129474
     atom    3 type  1   force =     0.00127370   -0.00051611    0.00078598
     atom    4 type  1   force =     0.00153357   -0.00006017    0.00036191
     atom    5 type  1   force =     0.00124660    0.00167565   -0.00133983
     atom    6 type  1   force =    -0.00060105   -0.00015125    0.00000563
     atom    7 type  1   force =    -0.00109937   -0.00056267   -0.00063330
     atom    8 type  1   force =    -0.00238316   -0.00062961    0.00124405

     Total force =     0.005350     Total SCF correction =     0.000078


     Computing stress (Cartesian axis) and pressure

          total   stress  (Ry/bohr**3)                   (kbar)     P=        0.66
   0.00002094   0.00000209   0.00000013            3.08        0.31        0.02
   0.00000209   0.00000232  -0.00000017            0.31        0.34       -0.03
   0.00000013  -0.00000017  -0.00000980            0.02       -0.03       -1.44


     number of scf cycles    =  43
     number of bfgs steps    =  41

     enthalpy old            =     -91.1633116740 Ry
     enthalpy new            =     -91.1633530444 Ry

     CASE: enthalpy_new < enthalpy_old

     new trust radius        =       0.0116591086 bohr
     new conv_thr            =       0.0000000100 Ry

     new unit-cell volume =    560.20905 a.u.^3 (    83.01441 Ang^3 )
     density =      1.92029 g/cm^3

CELL_PARAMETERS (bohr)
  10.759294543  -0.779986370  -0.033136091
  -0.112031448  11.191493254  -0.021344865
  -0.009032874  -0.012634674   4.655845528

ATOMIC_POSITIONS (crystal)
C             0.2094699777        0.6444264952        0.4845961758
C             0.2924939749        0.5622893248        0.9847343086
C             0.0418694962        0.8117089772        0.4843894157
C             0.4609735972        0.3957587665        0.9847168672
C             0.7936384999        0.0631918361       -0.0154926910
C            -0.0401116349        0.8946344243        0.9844070009
C             0.5445568135        0.3140677601        0.4846210470
C             0.7121372756        0.1466294159        0.4847048758



     Writing output data file ./pp.save/
     NEW-OLD atomic charge density approx. for the potential
     extrapolated charge   31.98182, renormalised to   32.00000

     total cpu time spent up to now is     2440.4 secs

     Self-consistent Calculation

     iteration #  1     ecut=    40.00 Ry     beta= 0.50
     Davidson diagonalization with overlap
     ethr =  1.00E-06,  avg # of iterations =  3.5

     Threshold (ethr) on eigenvalues was too large:
     Diagonalizing with lowered threshold

     Davidson diagonalization with overlap
     ethr =  3.38E-08,  avg # of iterations =  2.8

     total cpu time spent up to now is     2467.7 secs

     total energy              =     -91.16339486 Ry
     Harris-Foulkes estimate   =     -91.18665799 Ry
     estimated scf accuracy    <       0.00001115 Ry

     iteration #  2     ecut=    40.00 Ry     beta= 0.50
     Davidson diagonalization with overlap
     ethr =  3.49E-08,  avg # of iterations =  2.1

     total cpu time spent up to now is     2479.2 secs

     total energy              =     -91.16340557 Ry
     Harris-Foulkes estimate   =     -91.16340680 Ry
     estimated scf accuracy    <       0.00000412 Ry

     iteration #  3     ecut=    40.00 Ry     beta= 0.50
     Davidson diagonalization with overlap
     ethr =  1.29E-08,  avg # of iterations =  1.1

     total cpu time spent up to now is     2487.7 secs

     total energy              =     -91.16340532 Ry
     Harris-Foulkes estimate   =     -91.16340576 Ry
     estimated scf accuracy    <       0.00000113 Ry

     iteration #  4     ecut=    40.00 Ry     beta= 0.50
     Davidson diagonalization with overlap
     ethr =  3.52E-09,  avg # of iterations =  2.0

     total cpu time spent up to now is     2499.3 secs

     total energy              =     -91.16340553 Ry
     Harris-Foulkes estimate   =     -91.16340554 Ry
     estimated scf accuracy    <       0.00000005 Ry

     iteration #  5     ecut=    40.00 Ry     beta= 0.50
     Davidson diagonalization with overlap
     ethr =  1.46E-10,  avg # of iterations =  2.2

     total cpu time spent up to now is     2510.5 secs

     total energy              =     -91.16340553 Ry
     Harris-Foulkes estimate   =     -91.16340553 Ry
     estimated scf accuracy    <       0.00000001 Ry

     iteration #  6     ecut=    40.00 Ry     beta= 0.50
     Davidson diagonalization with overlap
     ethr =  3.75E-11,  avg # of iterations =  2.0

     total cpu time spent up to now is     2522.2 secs

     End of self-consistent calculation

          k = 0.0000 0.0000 0.0000 (  2387 PWs)   bands (ev):

   -14.1891 -12.6558 -12.6553  -8.9871  -7.8452  -2.0302  -2.0297  -1.8321
    -1.0752  -0.8943  -0.8939   0.2793   0.2799   2.2301   2.4087   3.1931
     7.5016   8.7109  12.4147  12.4171

          k = 0.0022 0.0013 0.6926 (  2368 PWs)   bands (ev):

   -13.0844 -11.5794 -11.5788  -8.0395  -7.0464  -4.4075  -3.6328  -3.6313
    -1.3026  -1.3010  -0.9443  -0.5446   0.2868   0.3726   0.3743   4.5246
     6.6398  10.1386  10.3803  10.3822

          k =-0.0045-0.0027-1.3852 (  2374 PWs)   bands (ev):

    -9.8899  -9.8892  -8.8681  -8.8669  -7.8770  -7.8751  -5.2430  -5.2421
    -3.5559  -3.5554  -1.0445  -1.0435   2.7823   2.7856   2.9694   2.9705
     6.6482   6.6488   8.3367   8.3378

          k =-0.0418-0.5767-0.0016 (  2370 PWs)   bands (ev):

   -13.7873 -13.7833 -10.9070 -10.9059  -5.3347  -5.3314  -1.8107  -1.7940
    -0.7181  -0.7093   0.9993   1.0038   1.3661   1.3730   1.5498   1.5563
     9.2271   9.2378  10.6669  10.7016

          k =-0.0396-0.5754 0.6910 (  2388 PWs)   bands (ev):

   -12.6902 -12.6859  -9.8752  -9.8736  -5.1484  -5.1440  -3.6216  -3.6157
    -2.0850  -2.0817  -0.5188  -0.4982   0.3299   0.3332   2.5561   2.5663
     8.2306   8.2374  11.9333  12.0017

          k =-0.0463-0.5794-1.3869 (  2374 PWs)   bands (ev):

    -9.5391  -9.5383  -9.5334  -9.5324  -6.6705  -6.6695  -6.6674  -6.6654
    -2.0582  -2.0577  -2.0556  -2.0553   2.8222   2.8291   2.8408   2.8512
     7.5114   7.5205   7.5263   7.5367

          k =-0.5999-0.0060-0.0012 (  2392 PWs)   bands (ev):

   -13.7847 -13.7780 -10.9167 -10.9151  -5.3255  -5.3220  -1.8490  -1.8389
    -0.7180  -0.7088   0.9953   0.9995   1.4610   1.4656   1.5486   1.5553
     9.1233   9.1412  10.8602  10.8960

          k =-0.5976-0.0047 0.6914 (  2376 PWs)   bands (ev):

   -12.6878 -12.6811  -9.8838  -9.8819  -5.1430  -5.1384  -3.6176  -3.6108
    -2.0885  -2.0841  -0.5551  -0.5393   0.3298   0.3328   2.6428   2.6535
     8.1642   8.1738  12.0914  12.1608

          k =-0.6043-0.0087-1.3864 (  2378 PWs)   bands (ev):

    -9.5374  -9.5366  -9.5310  -9.5283  -6.6769  -6.6743  -6.6741  -6.6706
    -2.0543  -2.0539  -2.0524  -2.0512   2.8062   2.8158   2.8219   2.8334
     7.5575   7.5684   7.5707   7.5831

          k =-0.6417-0.5827-0.0028 (  2392 PWs)   bands (ev):

   -14.1117 -12.7250 -12.7244  -8.9353  -7.8016  -2.6397  -2.0514  -2.0507
    -1.0653  -0.1514  -0.1510   0.2704   0.2710   2.2362   2.4150   2.6866
     6.7612  10.6040  10.6043  12.8019

          k =-0.6394-0.5814 0.6898 (  2362 PWs)   bands (ev):

   -13.0129 -11.6430 -11.6424  -7.9934  -7.0053  -4.3791  -3.6603  -3.6591
    -1.3185  -1.3171  -1.3085  -0.9276   0.2990   1.0671   1.0681   4.0397
     6.1397  10.7680  10.7705  12.0205

          k =-0.6461-0.5854-1.3881 (  2376 PWs)   bands (ev):

    -9.8345  -9.8338  -8.9210  -8.9194  -7.9203  -7.9187  -5.2107  -5.2097
    -3.5303  -3.5298  -1.0545  -1.0536   2.3605   2.3611   3.3034   3.3041
     7.3796   7.3846   7.9300   7.9314

     the Fermi energy is     4.7715 ev

!    total energy              =     -91.16340553 Ry
     Harris-Foulkes estimate   =     -91.16340553 Ry
     estimated scf accuracy    <          1.0E-09 Ry

     The total energy is the sum of the following terms:

     one-electron contribution =     -49.82984529 Ry
     hartree contribution      =      38.68027342 Ry
     xc contribution           =     -27.96588146 Ry
     ewald contribution        =     -52.04841340 Ry
     smearing contrib. (-TS)   =       0.00046119 Ry

     convergence has been achieved in   6 iterations

     Forces acting on atoms (cartesian axes, Ry/au):

     atom    1 type  1   force =     0.00043984   -0.00032768    0.00033448
     atom    2 type  1   force =    -0.00005650   -0.00029800   -0.00054593
     atom    3 type  1   force =     0.00119273   -0.00004461    0.00023816
     atom    4 type  1   force =     0.00153722    0.00073192   -0.00048907
     atom    5 type  1   force =     0.00133619    0.00087929    0.00071130
     atom    6 type  1   force =    -0.00080964    0.00040207    0.00001035
     atom    7 type  1   force =    -0.00131536   -0.00090381    0.00056751
     atom    8 type  1   force =    -0.00232449   -0.00043919   -0.00082681

     Total force =     0.004296     Total SCF correction =     0.000052


     Computing stress (Cartesian axis) and pressure

          total   stress  (Ry/bohr**3)                   (kbar)     P=        0.87
   0.00002211   0.00000136   0.00000094            3.25        0.20        0.14
   0.00000136   0.00000575  -0.00000115            0.20        0.85       -0.17
   0.00000094  -0.00000115  -0.00001009            0.14       -0.17       -1.48


     number of scf cycles    =  44
     number of bfgs steps    =  42

     enthalpy old            =     -91.1633530444 Ry
     enthalpy new            =     -91.1633674488 Ry

     CASE: enthalpy_new < enthalpy_old

     new trust radius        =       0.0084637812 bohr
     new conv_thr            =       0.0000000100 Ry

     new unit-cell volume =    560.20634 a.u.^3 (    83.01401 Ang^3 )
     density =      1.92030 g/cm^3

CELL_PARAMETERS (bohr)
  10.778539288  -0.781278976  -0.033289999
  -0.112342604  11.172164126  -0.021439489
  -0.009057974  -0.012705240   4.655566225

ATOMIC_POSITIONS (crystal)
C             0.2094379676        0.6443846119        0.4845328932
C             0.2924430110        0.5621669298        0.9846737819
C             0.0419349688        0.8116859499        0.4844785523
C             0.4608106120        0.3955952298        0.9847307272
C             0.7938805569        0.0634609878       -0.0155505697
C            -0.0400021780        0.8947201384        0.9845101144
C             0.5444286035        0.3140097599        0.4846320902
C             0.7120944581        0.1466833925        0.4846694104



     Writing output data file ./pp.save/
     NEW-OLD atomic charge density approx. for the potential
     extrapolated charge   31.99985, renormalised to   32.00000

     total cpu time spent up to now is     2522.7 secs

     Self-consistent Calculation

     iteration #  1     ecut=    40.00 Ry     beta= 0.50
     Davidson diagonalization with overlap
     ethr =  1.00E-06,  avg # of iterations =  3.2

     Threshold (ethr) on eigenvalues was too large:
     Diagonalizing with lowered threshold

     Davidson diagonalization with overlap
     ethr =  1.44E-08,  avg # of iterations =  3.1

     total cpu time spent up to now is     2551.3 secs

     total energy              =     -91.16342394 Ry
     Harris-Foulkes estimate   =     -91.16362294 Ry
     estimated scf accuracy    <       0.00000491 Ry

     iteration #  2     ecut=    40.00 Ry     beta= 0.50
     Davidson diagonalization with overlap
     ethr =  1.53E-08,  avg # of iterations =  2.0

     total cpu time spent up to now is     2562.9 secs

     total energy              =     -91.16342470 Ry
     Harris-Foulkes estimate   =     -91.16342466 Ry
     estimated scf accuracy    <       0.00000067 Ry

     iteration #  3     ecut=    40.00 Ry     beta= 0.50
     Davidson diagonalization with overlap
     ethr =  2.10E-09,  avg # of iterations =  1.8

     total cpu time spent up to now is     2573.1 secs

     total energy              =     -91.16342480 Ry
     Harris-Foulkes estimate   =     -91.16342477 Ry
     estimated scf accuracy    <       0.00000014 Ry

     iteration #  4     ecut=    40.00 Ry     beta= 0.50
     Davidson diagonalization with overlap
     ethr =  4.52E-10,  avg # of iterations =  1.6

     total cpu time spent up to now is     2582.9 secs

     total energy              =     -91.16342482 Ry
     Harris-Foulkes estimate   =     -91.16342482 Ry
     estimated scf accuracy    <       0.00000001 Ry

     iteration #  5     ecut=    40.00 Ry     beta= 0.50
     Davidson diagonalization with overlap
     ethr =  4.63E-11,  avg # of iterations =  2.0

     total cpu time spent up to now is     2593.9 secs

     End of self-consistent calculation

          k = 0.0000 0.0000 0.0000 (  2387 PWs)   bands (ev):

   -14.1899 -12.6570 -12.6557  -8.9875  -7.8469  -2.0319  -2.0305  -1.8329
    -1.0741  -0.8953  -0.8944   0.2796   0.2822   2.2320   2.4068   3.1944
     7.5021   8.7103  12.4146  12.4152

          k = 0.0022 0.0014 0.6927 (  2368 PWs)   bands (ev):

   -13.0850 -11.5804 -11.5791  -8.0398  -7.0477  -4.4072  -3.6330  -3.6306
    -1.3037  -1.3014  -0.9432  -0.5452   0.2852   0.3720   0.3738   4.5260
     6.6397  10.1384  10.3809  10.3818

          k =-0.0045-0.0027-1.3853 (  2374 PWs)   bands (ev):

    -9.8901  -9.8895  -8.8686  -8.8671  -7.8773  -7.8751  -5.2428  -5.2420
    -3.5573  -3.5568  -1.0456  -1.0443   2.7817   2.7852   2.9692   2.9700
     6.6486   6.6494   8.3384   8.3394

          k =-0.0419-0.5777-0.0017 (  2370 PWs)   bands (ev):

   -13.7869 -13.7849 -10.9090 -10.9064  -5.3351  -5.3325  -1.8124  -1.7975
    -0.7149  -0.7102   0.9973   1.0020   1.3700   1.3776   1.5518   1.5575
     9.2217   9.2328  10.6752  10.7099

          k =-0.0396-0.5763 0.6910 (  2388 PWs)   bands (ev):

   -12.6897 -12.6873  -9.8770  -9.8740  -5.1483  -5.1446  -3.6202  -3.6170
    -2.0850  -2.0810  -0.5205  -0.5012   0.3284   0.3327   2.5598   2.5705
     8.2277   8.2342  11.9425  12.0101

          k =-0.0464-0.5804-1.3870 (  2374 PWs)   bands (ev):

    -9.5391  -9.5366  -9.5342  -9.5338  -6.6712  -6.6696  -6.6683  -6.6655
    -2.0596  -2.0584  -2.0563  -2.0557   2.8207   2.8289   2.8394   2.8498
     7.5141   7.5230   7.5298   7.5403

          k =-0.5988-0.0060-0.0012 (  2392 PWs)   bands (ev):

   -13.7844 -13.7802 -10.9178 -10.9147  -5.3267  -5.3241  -1.8484  -1.8368
    -0.7149  -0.7097   0.9937   0.9981   1.4563   1.4610   1.5507   1.5566
     9.1271   9.1451  10.8499  10.8858

          k =-0.5966-0.0047 0.6915 (  2376 PWs)   bands (ev):

   -12.6875 -12.6831  -9.8848  -9.8814  -5.1430  -5.1398  -3.6167  -3.6124
    -2.0882  -2.0831  -0.5542  -0.5374   0.3283   0.3324   2.6383   2.6493
     8.1668   8.1773  12.0821  12.1505

          k =-0.6033-0.0087-1.3865 (  2378 PWs)   bands (ev):

    -9.5367  -9.5360  -9.5324  -9.5298  -6.6772  -6.6747  -6.6733  -6.6703
    -2.0559  -2.0550  -2.0530  -2.0524   2.8065   2.8160   2.8237   2.8333
     7.5568   7.5662   7.5689   7.5819

          k =-0.6407-0.5837-0.0028 (  2392 PWs)   bands (ev):

   -14.1125 -12.7261 -12.7249  -8.9356  -7.8031  -2.6402  -2.0532  -2.0518
    -1.0643  -0.1521  -0.1508   0.2708   0.2733   2.2381   2.4131   2.6861
     6.7588  10.6020  10.6028  12.8017

          k =-0.6384-0.5824 0.6898 (  2362 PWs)   bands (ev):

   -13.0136 -11.6440 -11.6428  -7.9935  -7.0065  -4.3787  -3.6606  -3.6584
    -1.3200  -1.3176  -1.3085  -0.9265   0.2975   1.0668   1.0682   4.0393
     6.1385  10.7690  10.7717  12.0193

          k =-0.6451-0.5864-1.3882 (  2376 PWs)   bands (ev):

    -9.8347  -9.8341  -8.9214  -8.9196  -7.9207  -7.9187  -5.2103  -5.2095
    -3.5315  -3.5311  -1.0556  -1.0545   2.3603   2.3611   3.3032   3.3039
     7.3805   7.3860   7.9305   7.9313

     the Fermi energy is     4.7730 ev

!    total energy              =     -91.16342482 Ry
     Harris-Foulkes estimate   =     -91.16342482 Ry
     estimated scf accuracy    <          9.1E-10 Ry

     The total energy is the sum of the following terms:

     one-electron contribution =     -49.84677320 Ry
     hartree contribution      =      38.68882581 Ry
     xc contribution           =     -27.96650198 Ry
     ewald contribution        =     -52.03943543 Ry
     smearing contrib. (-TS)   =       0.00045998 Ry

     convergence has been achieved in   5 iterations

     Forces acting on atoms (cartesian axes, Ry/au):

     atom    1 type  1   force =     0.00078285   -0.00089197    0.00047673
     atom    2 type  1   force =    -0.00055143    0.00016522   -0.00050193
     atom    3 type  1   force =     0.00079601    0.00062751    0.00016232
     atom    4 type  1   force =     0.00158878    0.00104004   -0.00056489
     atom    5 type  1   force =     0.00074391    0.00013878    0.00096811
     atom    6 type  1   force =    -0.00068261    0.00055285   -0.00018493
     atom    7 type  1   force =    -0.00120986   -0.00129117    0.00055767
     atom    8 type  1   force =    -0.00146765   -0.00034126   -0.00091308

     Total force =     0.004007     Total SCF correction =     0.000022


     Computing stress (Cartesian axis) and pressure

          total   stress  (Ry/bohr**3)                   (kbar)     P=        1.17
   0.00002291   0.00000050   0.00000107            3.37        0.07        0.16
   0.00000050   0.00000813  -0.00000131            0.07        1.20       -0.19
   0.00000107  -0.00000131  -0.00000725            0.16       -0.19       -1.07


     number of scf cycles    =  45
     number of bfgs steps    =  43

     enthalpy old            =     -91.1633674488 Ry
     enthalpy new            =     -91.1633867388 Ry

     CASE: enthalpy_new < enthalpy_old

     new trust radius        =       0.0126729659 bohr
     new conv_thr            =       0.0000000100 Ry

     new unit-cell volume =    560.60333 a.u.^3 (    83.07284 Ang^3 )
     density =      1.91894 g/cm^3

CELL_PARAMETERS (bohr)
  10.807100506  -0.777715866  -0.033550718
  -0.110018224  11.151036153  -0.021671342
  -0.009102039  -0.012846534   4.655269671

ATOMIC_POSITIONS (crystal)
C             0.2094926766        0.6444006224        0.4844510341
C             0.2924629772        0.5621049095        0.9845922757
C             0.0421369432        0.8118009066        0.4846210045
C             0.4606180543        0.3953996122        0.9847305318
C             0.7940446838        0.0636970570       -0.0155961261
C            -0.0398149685        0.8948879120        0.9846456996
C             0.5441823741        0.3138234742        0.4846308586
C             0.7119052593        0.1465925060        0.4846017218



     Writing output data file ./pp.save/
     NEW-OLD atomic charge density approx. for the potential
     extrapolated charge   32.02266, renormalised to   32.00000

     total cpu time spent up to now is     2594.5 secs

     Self-consistent Calculation

     iteration #  1     ecut=    40.00 Ry     beta= 0.50
     Davidson diagonalization with overlap
     ethr =  1.00E-06,  avg # of iterations =  3.6

     Threshold (ethr) on eigenvalues was too large:
     Diagonalizing with lowered threshold

     Davidson diagonalization with overlap
     ethr =  4.48E-08,  avg # of iterations =  2.2

     total cpu time spent up to now is     2622.5 secs

     total energy              =     -91.16343810 Ry
     Harris-Foulkes estimate   =     -91.13434939 Ry
     estimated scf accuracy    <       0.00001440 Ry

     iteration #  2     ecut=    40.00 Ry     beta= 0.50
     Davidson diagonalization with overlap
