
     Program PWSCF v.6.5 starts on  7Jul2022 at 21:38: 3 

     This program is part of the open-source Quantum ESPRESSO suite
     for quantum simulation of materials; please cite
         "P. Giannozzi et al., J. Phys.:Condens. Matter 21 395502 (2009);
         "P. Giannozzi et al., J. Phys.:Condens. Matter 29 465901 (2017);
          URL http://www.quantum-espresso.org", 
     in publications or presentations arising from this work. More details at
     http://www.quantum-espresso.org/quote

     Parallel version (MPI), running on    96 processors

     MPI processes distributed on     2 nodes
     R & G space division:  proc/nbgrp/npool/nimage =      96
     Waiting for input...
     Reading input from standard input
     Message from routine read_cards :
     DEPRECATED: no units specified in CELL_PARAMETERS card

     Current dimensions of program PWSCF are:
     Max number of different atomic species (ntypx) = 10
     Max number of k-points (npk) =  40000
     Max angular momentum in pseudopotentials (lmaxx) =  3

     Subspace diagonalization in iterative solution of the eigenvalue problem:
     one sub-group per band group will be used
     scalapack distributed-memory algorithm (size of sub-group:  9*  9 procs)

     Found symmetry operation: I + (  0.0000 -0.5000  0.5000)
     This is a supercell, fractional translations are disabled
 
     Parallelization info
     --------------------
     sticks:   dense  smooth     PW     G-vecs:    dense   smooth      PW
     Min          15      15      5                  197      197      34
     Max          16      16      7                  200      200      37
     Sum        1519    1519    487                19095    19095    3425
 


     bravais-lattice index     =            0
     lattice parameter (alat)  =      14.8219  a.u.
     unit-cell volume          =     558.4916 (a.u.)^3
     number of atoms/cell      =            8
     number of atomic types    =            1
     number of electrons       =        32.00
     number of Kohn-Sham states=           20
     kinetic-energy cutoff     =      40.0000  Ry
     charge density cutoff     =     160.0000  Ry
     convergence threshold     =      1.0E-06
     mixing beta               =       0.5000
     number of iterations used =            8  plain     mixing
     Exchange-correlation=  SLA  PW   PBE  PBE
                           (   1   4   3   4   0   0   0)
     nstep                     =          250


     celldm(1)=  14.821921  celldm(2)=   0.000000  celldm(3)=   0.000000
     celldm(4)=   0.000000  celldm(5)=   0.000000  celldm(6)=   0.000000

     crystal axes: (cart. coord. in units of alat)
               a(1) = (   0.999999  -0.001666  -0.000108 )  
               a(2) = (   0.000864   0.544423   0.000121 )  
               a(3) = (  -0.000054  -0.000067   0.315040 )  

     reciprocal axes: (cart. coord. in units 2 pi/alat)
               b(1) = (  0.999999 -0.001586  0.000171 )  
               b(2) = (  0.003061  1.836801  0.000394 )  
               b(3) = (  0.000341 -0.000709  3.174199 )  


     PseudoPot. # 1 for C  read from file:
     ./C.pbe-van_bm.upf
     MD5 check sum: 1a69bf6b8db32088f5b2163dbdb77a27
     Pseudo is Ultrasoft, Zval =  4.0
     Generated by new atomic code, or converted to UPF format
     Using radial grid of  721 points,  4 beta functions with: 
                l(1) =   0
                l(2) =   0
                l(3) =   1
                l(4) =   1
     Q(r) pseudized with  8 coefficients,  rinner =    0.800   0.800   0.800


     atomic species   valence    mass     pseudopotential
        C              4.00    12.00000     C ( 1.00)

     No symmetry found



   Cartesian axes

     site n.     atom                  positions (alat units)
         1           C   tau(   1) = (   0.7413973   0.4805399   0.2450777  )
         2           C   tau(   2) = (   0.7412543   0.3917123   0.0875435  )
         3           C   tau(   3) = (   0.7409955   0.2083619   0.0874960  )
         4           C   tau(   4) = (   0.7407975   0.1194664   0.2450025  )
         5           C   tau(   5) = (   0.1240744   0.2262199   0.0793646  )
         6           C   tau(   6) = (   0.1238765   0.1373304   0.2368714  )
         7           C   tau(   7) = (   0.1243353   0.4095769   0.0794121  )
         8           C   tau(   8) = (   0.1244802   0.4983979   0.2369463  )

     number of k points=    12  Marzari-Vanderbilt smearing, width (Ry)=  0.0200
                       cart. coord. in units 2pi/alat
        k(    1) = (   0.0000000   0.0000000   0.0000000), wk =   0.1250000
        k(    2) = (   0.0000854  -0.0001771   0.7935496), wk =   0.2500000
        k(    3) = (  -0.0001707   0.0003543  -1.5870993), wk =   0.1250000
        k(    4) = (  -0.0015305  -0.9184004  -0.0001969), wk =   0.1250000
        k(    5) = (  -0.0014451  -0.9185776   0.7933527), wk =   0.2500000
        k(    6) = (  -0.0017012  -0.9180461  -1.5872962), wk =   0.1250000
        k(    7) = (  -0.4999994   0.0007931  -0.0000855), wk =   0.1250000
        k(    8) = (  -0.4999140   0.0006160   0.7934642), wk =   0.2500000
        k(    9) = (  -0.5001701   0.0011474  -1.5871848), wk =   0.1250000
        k(   10) = (  -0.5015299  -0.9176073  -0.0002824), wk =   0.1250000
        k(   11) = (  -0.5014445  -0.9177844   0.7932672), wk =   0.2500000
        k(   12) = (  -0.5017006  -0.9172530  -1.5873817), wk =   0.1250000

     Dense  grid:    19095 G-vectors     FFT dimensions: (  60,  36,  20)

     Estimated max dynamical RAM per process >       2.61 MB

     Estimated total dynamical RAM >     250.38 MB

     Initial potential from superposition of free atoms

     starting charge   31.99968, renormalised to   32.00000
     Starting wfcs are   32 randomized atomic wfcs

     total cpu time spent up to now is        0.7 secs

     Self-consistent Calculation

     iteration #  1     ecut=    40.00 Ry     beta= 0.50
     Davidson diagonalization with overlap
     ethr =  1.00E-02,  avg # of iterations =  2.0

     total cpu time spent up to now is        1.4 secs

     total energy              =     -91.06922356 Ry
     Harris-Foulkes estimate   =     -91.44096376 Ry
     estimated scf accuracy    <       0.76889973 Ry

     iteration #  2     ecut=    40.00 Ry     beta= 0.50
     Davidson diagonalization with overlap
     ethr =  2.40E-03,  avg # of iterations =  2.3

     total cpu time spent up to now is        2.0 secs

     total energy              =     -91.09391339 Ry
     Harris-Foulkes estimate   =     -91.12798351 Ry
     estimated scf accuracy    <       0.07457644 Ry

     iteration #  3     ecut=    40.00 Ry     beta= 0.50
     Davidson diagonalization with overlap
     ethr =  2.33E-04,  avg # of iterations =  3.8

     total cpu time spent up to now is        2.8 secs

     total energy              =     -91.10534436 Ry
     Harris-Foulkes estimate   =     -91.10552503 Ry
     estimated scf accuracy    <       0.00215645 Ry

     iteration #  4     ecut=    40.00 Ry     beta= 0.50
     Davidson diagonalization with overlap
     ethr =  6.74E-06,  avg # of iterations =  3.7

     total cpu time spent up to now is        3.6 secs

     total energy              =     -91.10563377 Ry
     Harris-Foulkes estimate   =     -91.10566260 Ry
     estimated scf accuracy    <       0.00046067 Ry

     iteration #  5     ecut=    40.00 Ry     beta= 0.50
     Davidson diagonalization with overlap
     ethr =  1.44E-06,  avg # of iterations =  2.2

     total cpu time spent up to now is        4.2 secs

     total energy              =     -91.10568354 Ry
     Harris-Foulkes estimate   =     -91.10568695 Ry
     estimated scf accuracy    <       0.00001592 Ry

     iteration #  6     ecut=    40.00 Ry     beta= 0.50
     Davidson diagonalization with overlap
     ethr =  4.97E-08,  avg # of iterations =  2.8

     total cpu time spent up to now is        5.0 secs

     End of self-consistent calculation

          k = 0.0000 0.0000 0.0000 (  2381 PWs)   bands (ev):

   -14.2917 -13.9429  -9.0235  -8.7542  -7.8632  -7.6448  -3.0443  -1.2912
    -1.1612  -1.0841   2.1388   2.1918   2.3016   2.5480   2.6008   3.6311
     6.4656   8.0346   8.7102  12.4247

          k = 0.0001-0.0002 0.7935 (  2372 PWs)   bands (ev):

   -13.1865 -12.8572  -8.0769  -7.8298  -7.0781  -6.8613  -4.4820  -4.3273
    -1.7166  -1.0105  -0.8964  -0.0228   0.3617   0.4464   3.6530   4.9388
     5.8162   7.1057  10.1514  13.1163

          k =-0.0002 0.0004-1.5871 (  2382 PWs)   bands (ev):

    -9.9913  -9.9913  -9.7161  -9.7161  -5.2867  -5.2866  -5.0974  -5.0974
    -3.5393  -3.5393  -3.3964  -3.3964   1.9616   1.9616   3.4410   3.4410
     7.5525   7.5525   8.7020   8.7021

          k =-0.0015-0.9184-0.0002 (  2380 PWs)   bands (ev):

   -12.8090 -12.8089 -12.4858 -12.4857  -1.9942  -1.9942  -1.8520  -1.8520
    -1.2922  -1.2922   0.1850   0.1851   0.2545   0.2546   0.3748   0.3749
    10.6298  10.6298  12.1869  12.1870

          k =-0.0014-0.9186 0.7934 (  2388 PWs)   bands (ev):

   -11.7270 -11.7269 -11.4223 -11.4223  -3.7277  -3.7273  -3.5634  -3.5621
    -1.2740  -1.2721  -1.1699  -1.1697  -0.0253  -0.0246   1.5736   1.5748
    10.0300  10.0343  11.1187  11.1264

          k =-0.0017-0.9180-1.5873 (  2376 PWs)   bands (ev):

    -9.0171  -9.0157  -8.7471  -8.7438  -7.9853  -7.9821  -7.7641  -7.7640
    -0.9912  -0.9883  -0.9149  -0.9137   2.3994   2.4072   3.7519   3.7703
     6.2263   6.2426   7.7926   7.7967

          k =-0.5000 0.0008-0.0001 (  2400 PWs)   bands (ev):

   -14.2875 -13.9478  -9.0211  -8.7570  -7.8611  -7.6472  -2.9668  -1.4169
    -1.1612  -1.0844   2.1383   2.1908   2.3434   2.5475   2.5999   3.5724
     6.5377   7.9093   9.5167  12.1639

          k =-0.4999 0.0006 0.7935 (  2382 PWs)   bands (ev):

   -13.1827 -12.8617  -8.0748  -7.8322  -7.0762  -6.8636  -4.4807  -4.3287
    -1.6444  -1.0097  -0.8970  -0.1389   0.3626   0.4462   3.6919   4.8850
     5.8552   7.0434  10.9400  13.1325

          k =-0.5002 0.0011-1.5872 (  2388 PWs)   bands (ev):

    -9.9886  -9.9886  -9.7192  -9.7192  -5.2852  -5.2851  -5.0991  -5.0990
    -3.5380  -3.5379  -3.3977  -3.3977   2.0158   2.0158   3.3589   3.3590
     7.5841   7.5842   8.6578   8.6579

          k =-0.5015-0.9176-0.0003 (  2380 PWs)   bands (ev):

   -12.8054 -12.8053 -12.4901 -12.4900  -1.9936  -1.9935  -1.8532  -1.8532
    -1.2223  -1.2223   0.1856   0.1857   0.2550   0.2551   0.2629   0.2630
    11.3843  11.3843  12.2126  12.2127

          k =-0.5014-0.9178 0.7933 (  2384 PWs)   bands (ev):

   -11.7238 -11.7236 -11.4261 -11.4261  -3.7265  -3.7261  -3.5645  -3.5632
    -1.2732  -1.2715  -1.1707  -1.1704   0.0390   0.0395   1.4731   1.4741
    10.0638  10.0686  11.0625  11.0698

          k =-0.5017-0.9173-1.5874 (  2408 PWs)   bands (ev):

    -9.0147  -9.0133  -8.7499  -8.7467  -7.9832  -7.9800  -7.7665  -7.7664
    -0.9911  -0.9882  -0.9153  -0.9141   2.4424   2.4500   3.6915   3.7077
     6.2990   6.3123   7.6722   7.6757

     the Fermi energy is     5.1658 ev

!    total energy              =     -91.10568887 Ry
     Harris-Foulkes estimate   =     -91.10568909 Ry
     estimated scf accuracy    <       0.00000096 Ry

     The total energy is the sum of the following terms:

     one-electron contribution =     -83.55214830 Ry
     hartree contribution      =      55.63332039 Ry
     xc contribution           =     -28.01051709 Ry
     ewald contribution        =     -35.17717612 Ry
     smearing contrib. (-TS)   =       0.00083224 Ry

     convergence has been achieved in   6 iterations

     Forces acting on atoms (cartesian axes, Ry/au):

     atom    1 type  1   force =    -0.01305452   -0.01088392    0.00063647
     atom    2 type  1   force =    -0.01266990    0.00780518    0.00006071
     atom    3 type  1   force =    -0.01306311   -0.01088495    0.00064992
     atom    4 type  1   force =    -0.01267499    0.00781392    0.00005230
     atom    5 type  1   force =     0.01266940   -0.00770378   -0.00004777
     atom    6 type  1   force =     0.01306563    0.01079048   -0.00065230
     atom    7 type  1   force =     0.01306308    0.01076732   -0.00063515
     atom    8 type  1   force =     0.01266442   -0.00770425   -0.00006419

     Total force =     0.045124     Total SCF correction =     0.000627


     Computing stress (Cartesian axis) and pressure

          total   stress  (Ry/bohr**3)                   (kbar)     P=       21.05
   0.00045755   0.00006231  -0.00001318           67.31        9.17       -1.94
   0.00006231   0.00033298   0.00000158            9.17       48.98        0.23
  -0.00001318   0.00000158  -0.00036121           -1.94        0.23      -53.14


     BFGS Geometry Optimization

     number of scf cycles    =   1
     number of bfgs steps    =   0

     enthalpy new            =     -91.1056509071 Ry

     new trust radius        =       0.0545783434 bohr
     new conv_thr            =       0.0000010000 Ry

     new unit-cell volume =    564.43466 a.u.^3 (    83.64059 Ang^3 )
     density =      1.90591 g/cm^3

CELL_PARAMETERS (bohr)
  14.991380997  -0.001818564  -0.006470354
   0.025514960   8.136579522   0.002099175
  -0.002349311  -0.000824598   4.627325705

ATOMIC_POSITIONS (crystal)
C             0.7397964154        0.8836705348        0.7779745238
C             0.7397913583        0.7227656393        0.2778683373
C             0.7397988363        0.3836704067        0.2779744040
C             0.7397930135        0.2227657214        0.7778655339
C             0.1245845974        0.4149799266        0.2517914306
C             0.1245793439        0.2540608865        0.7516820907
C             0.1245791743        0.7540600174        0.2516857657
C             0.1245852610        0.9149798672        0.7517909139



     Writing output data file ./pp.save/
     NEW-OLD atomic charge density approx. for the potential
     extrapolated charge   32.33693, renormalised to   32.00000

     total cpu time spent up to now is        5.3 secs

     Self-consistent Calculation

     iteration #  1     ecut=    40.00 Ry     beta= 0.50
     Davidson diagonalization with overlap
     ethr =  1.00E-06,  avg # of iterations =  6.2

     total cpu time spent up to now is        6.8 secs

     total energy              =     -91.09684815 Ry
     Harris-Foulkes estimate   =     -90.30834777 Ry
     estimated scf accuracy    <       0.01152158 Ry

     iteration #  2     ecut=    40.00 Ry     beta= 0.50
     Davidson diagonalization with overlap
     ethr =  3.60E-05,  avg # of iterations =  3.4

     total cpu time spent up to now is        7.7 secs

     total energy              =     -91.10890045 Ry
     Harris-Foulkes estimate   =     -91.11549639 Ry
     estimated scf accuracy    <       0.01915354 Ry

     iteration #  3     ecut=    40.00 Ry     beta= 0.50
     Davidson diagonalization with overlap
     ethr =  3.60E-05,  avg # of iterations =  2.0

     total cpu time spent up to now is        8.3 secs

     total energy              =     -91.10950916 Ry
     Harris-Foulkes estimate   =     -91.11044261 Ry
     estimated scf accuracy    <       0.00284582 Ry

     iteration #  4     ecut=    40.00 Ry     beta= 0.50
     Davidson diagonalization with overlap
     ethr =  8.89E-06,  avg # of iterations =  2.2

     total cpu time spent up to now is        8.9 secs

     total energy              =     -91.10940439 Ry
     Harris-Foulkes estimate   =     -91.10970674 Ry
     estimated scf accuracy    <       0.00054641 Ry

     iteration #  5     ecut=    40.00 Ry     beta= 0.50
     Davidson diagonalization with overlap
     ethr =  1.71E-06,  avg # of iterations =  3.2

     total cpu time spent up to now is        9.6 secs

     total energy              =     -91.10953448 Ry
     Harris-Foulkes estimate   =     -91.10953826 Ry
     estimated scf accuracy    <       0.00000917 Ry

     iteration #  6     ecut=    40.00 Ry     beta= 0.50
     Davidson diagonalization with overlap
     ethr =  2.87E-08,  avg # of iterations =  2.3

     total cpu time spent up to now is       10.3 secs

     End of self-consistent calculation

          k = 0.0000 0.0000 0.0000 (  2381 PWs)   bands (ev):

   -14.3821 -14.0705  -9.3355  -9.0986  -7.8351  -7.6367  -3.1012  -1.4682
    -1.1508  -1.0861   1.9260   1.9697   2.0313   2.5715   2.6188   3.2470
     6.5313   8.0421   8.5632  12.7486

          k = 0.0003-0.0002 0.8008 (  2372 PWs)   bands (ev):

   -13.2591 -12.9658  -8.3799  -8.1635  -6.9797  -6.7841  -4.5566  -4.4219
    -1.7428  -1.2492  -1.1524  -0.1661   0.4278   0.5032   3.4097   4.5862
     5.9411   7.1503  10.0372  13.0465

          k =-0.0007 0.0004-1.6016 (  2382 PWs)   bands (ev):

   -10.0037 -10.0037  -9.7608  -9.7607  -5.5638  -5.5637  -5.4001  -5.4000
    -3.5144  -3.5143  -3.3854  -3.3854   2.0261   2.0262   3.3983   3.3983
     7.3856   7.3856   8.4319   8.4319

          k =-0.0001-0.9108-0.0002 (  2380 PWs)   bands (ev):

   -12.9262 -12.9262 -12.6374 -12.6374  -2.1184  -2.1184  -1.9901  -1.9901
    -1.3914  -1.3914   0.1228   0.1229   0.1569   0.1569   0.1807   0.1807
    10.4481  10.4481  12.1159  12.1159

          k = 0.0002-0.9110 0.8006 (  2388 PWs)   bands (ev):

   -11.8271 -11.8268 -11.5558 -11.5556  -3.7392  -3.7362  -3.5954  -3.5931
    -1.4638  -1.4619  -1.3722  -1.3687  -0.0879  -0.0861   1.3981   1.3985
    10.0366  10.0447  11.0245  11.0293

          k =-0.0008-0.9104-1.6017 (  2376 PWs)   bands (ev):

    -9.0019  -8.9969  -8.7593  -8.7589  -8.1417  -8.1400  -7.9513  -7.9463
    -1.1385  -1.1376  -1.0727  -1.0696   2.4554   2.4684   3.7104   3.7234
     6.1268   6.1367   7.5555   7.5666

          k =-0.4943 0.0016-0.0003 (  2400 PWs)   bands (ev):

   -14.3783 -14.0748  -9.3333  -9.1011  -7.8331  -7.6390  -3.0280  -1.5843
    -1.1508  -1.0864   1.9254   1.9687   2.0699   2.5712   2.6179   3.1936
     6.6058   7.9138   9.3481  11.8636

          k =-0.4940 0.0013 0.8005 (  2382 PWs)   bands (ev):

   -13.2557 -12.9698  -8.3780  -8.1657  -6.9779  -6.7862  -4.5554  -4.4231
    -1.6747  -1.2484  -1.1530  -0.2735   0.4287   0.5031   3.4456   4.5367
     5.9808   7.0897  10.8057  13.0612

          k =-0.4950 0.0020-1.6018 (  2388 PWs)   bands (ev):

   -10.0013 -10.0012  -9.7636  -9.7635  -5.5625  -5.5624  -5.4015  -5.4015
    -3.5131  -3.5131  -3.3867  -3.3866   2.0773   2.0774   3.3223   3.3224
     7.4148   7.4149   8.3920   8.3921

          k =-0.4945-0.9093-0.0004 (  2380 PWs)   bands (ev):

   -12.9229 -12.9229 -12.6413 -12.6413  -2.1177  -2.1177  -1.9912  -1.9912
    -1.3257  -1.3257   0.0539   0.0539   0.1235   0.1235   0.1812   0.1813
    11.1711  11.1711  12.1434  12.1434

          k =-0.4941-0.9095 0.8004 (  2384 PWs)   bands (ev):

   -11.8241 -11.8238 -11.5592 -11.5590  -3.7382  -3.7351  -3.5963  -3.5942
    -1.4633  -1.4612  -1.3728  -1.3695  -0.0274  -0.0257   1.3052   1.3058
    10.0662  10.0745  10.9801  10.9846

          k =-0.4951-0.9089-1.6020 (  2408 PWs)   bands (ev):

    -8.9997  -8.9947  -8.7619  -8.7614  -8.1399  -8.1382  -7.9534  -7.9484
    -1.1384  -1.1374  -1.0731  -1.0699   2.4960   2.5088   3.6542   3.6654
     6.1935   6.2010   7.4486   7.4591

     the Fermi energy is     4.8149 ev

!    total energy              =     -91.10953697 Ry
     Harris-Foulkes estimate   =     -91.10953723 Ry
     estimated scf accuracy    <       0.00000042 Ry

     The total energy is the sum of the following terms:

     one-electron contribution =     -85.21644159 Ry
     hartree contribution      =      56.34166766 Ry
     xc contribution           =     -28.01704006 Ry
     ewald contribution        =     -34.21855355 Ry
     smearing contrib. (-TS)   =       0.00083057 Ry

     convergence has been achieved in   6 iterations

     Forces acting on atoms (cartesian axes, Ry/au):

     atom    1 type  1   force =    -0.01103774    0.02513564   -0.00015958
     atom    2 type  1   force =    -0.01111646   -0.02748248    0.00079216
     atom    3 type  1   force =    -0.01104641    0.02513697   -0.00016913
     atom    4 type  1   force =    -0.01112121   -0.02748368    0.00080634
     atom    5 type  1   force =     0.01111826    0.02732552   -0.00080764
     atom    6 type  1   force =     0.01104404   -0.02498390    0.00017536
     atom    7 type  1   force =     0.01104485   -0.02497381    0.00015460
     atom    8 type  1   force =     0.01111466    0.02732575   -0.00079210

     Total force =     0.080625     Total SCF correction =     0.002100


     Computing stress (Cartesian axis) and pressure

          total   stress  (Ry/bohr**3)                   (kbar)     P=       24.94
   0.00039772   0.00004741  -0.00001217           58.51        6.97       -1.79
   0.00004741  -0.00021059  -0.00000293            6.97      -30.98       -0.43
  -0.00001217  -0.00000293   0.00032145           -1.79       -0.43       47.29


     number of scf cycles    =   2
     number of bfgs steps    =   1

     enthalpy old            =     -91.1056509071 Ry
     enthalpy new            =     -91.1094986038 Ry

     CASE: enthalpy_new < enthalpy_old

     new trust radius        =       0.1013473345 bohr
     new conv_thr            =       0.0000002748 Ry

     new unit-cell volume =    577.41953 a.u.^3 (    85.56474 Ang^3 )
     density =      1.86305 g/cm^3

CELL_PARAMETERS (bohr)
  15.308431193   0.039100819  -0.015805585
   0.047975392   8.170151441   0.001893033
  -0.005336214  -0.000946724   4.616764103

ATOMIC_POSITIONS (crystal)
C             0.7381606029        0.8850752640        0.7780903999
C             0.7381765874        0.7206680988        0.2780365206
C             0.7381618597        0.3850751459        0.2780915351
C             0.7381775748        0.2206692092        0.7780345176
C             0.1261994334        0.4170731197        0.2516232403
C             0.1262163667        0.2526609770        0.7515656140
C             0.1262160655        0.7526581642        0.2515692321
C             0.1261995096        0.9170730213        0.7516219404



     Writing output data file ./pp.save/
     NEW-OLD atomic charge density approx. for the potential
     extrapolated charge   32.71960, renormalised to   32.00000

     total cpu time spent up to now is       10.4 secs

     Self-consistent Calculation

     iteration #  1     ecut=    40.00 Ry     beta= 0.50
     Davidson diagonalization with overlap
     ethr =  1.00E-06,  avg # of iterations =  8.6

     total cpu time spent up to now is       12.4 secs

     total energy              =     -91.05124319 Ry
     Harris-Foulkes estimate   =     -89.35699108 Ry
     estimated scf accuracy    <       0.05546837 Ry

     iteration #  2     ecut=    40.00 Ry     beta= 0.50
     Davidson diagonalization with overlap
     ethr =  1.73E-04,  avg # of iterations =  3.8

     total cpu time spent up to now is       13.4 secs

     total energy              =     -91.11295771 Ry
     Harris-Foulkes estimate   =     -91.14531254 Ry
     estimated scf accuracy    <       0.09348590 Ry

     iteration #  3     ecut=    40.00 Ry     beta= 0.50
     Davidson diagonalization with overlap
     ethr =  1.73E-04,  avg # of iterations =  2.1

     total cpu time spent up to now is       14.0 secs

     total energy              =     -91.11766950 Ry
     Harris-Foulkes estimate   =     -91.12045122 Ry
     estimated scf accuracy    <       0.01406593 Ry

     iteration #  4     ecut=    40.00 Ry     beta= 0.50
     Davidson diagonalization with overlap
     ethr =  4.40E-05,  avg # of iterations =  1.3

     total cpu time spent up to now is       14.5 secs

     total energy              =     -91.11440204 Ry
     Harris-Foulkes estimate   =     -91.11802921 Ry
     estimated scf accuracy    <       0.00677334 Ry

     iteration #  5     ecut=    40.00 Ry     beta= 0.50
     Davidson diagonalization with overlap
     ethr =  2.12E-05,  avg # of iterations =  2.8

     total cpu time spent up to now is       15.3 secs

     total energy              =     -91.11589659 Ry
     Harris-Foulkes estimate   =     -91.11589692 Ry
     estimated scf accuracy    <       0.00003374 Ry

     iteration #  6     ecut=    40.00 Ry     beta= 0.50
     Davidson diagonalization with overlap
     ethr =  1.05E-07,  avg # of iterations =  3.5

     total cpu time spent up to now is       16.2 secs

     total energy              =     -91.11590216 Ry
     Harris-Foulkes estimate   =     -91.11591667 Ry
     estimated scf accuracy    <       0.00003338 Ry

     iteration #  7     ecut=    40.00 Ry     beta= 0.50
     Davidson diagonalization with overlap
     ethr =  1.04E-07,  avg # of iterations =  2.0

     total cpu time spent up to now is       16.8 secs

     total energy              =     -91.11590607 Ry
     Harris-Foulkes estimate   =     -91.11590661 Ry
     estimated scf accuracy    <       0.00000107 Ry

     iteration #  8     ecut=    40.00 Ry     beta= 0.50
     Davidson diagonalization with overlap
     ethr =  3.36E-09,  avg # of iterations =  2.3

     total cpu time spent up to now is       17.5 secs

     End of self-consistent calculation

          k = 0.0000 0.0000 0.0000 (  2381 PWs)   bands (ev):

   -14.5411 -14.2881  -9.5206  -9.3321  -8.1244  -7.9662  -3.2029  -1.7709
    -1.1714  -1.1214   1.9548   1.9585   1.9915   2.1124   2.1470   3.0026
     6.2431   7.5557   8.2889  12.7440

          k = 0.0008-0.0002 0.8026 (  2372 PWs)   bands (ev):

   -13.4117 -13.1741  -8.5510  -8.3790  -7.2680  -7.1133  -4.6277  -4.5199
    -1.8449  -1.2972  -1.2212  -0.4667   0.0581   0.1147   3.3352   4.3466
     5.7098   6.7432   9.7733  12.9318

          k =-0.0017 0.0004-1.6052 (  2382 PWs)   bands (ev):

   -10.1402 -10.1401  -9.9445  -9.9444  -5.6908  -5.6907  -5.5613  -5.5612
    -3.8034  -3.8034  -3.7029  -3.7029   1.9055   1.9056   3.0872   3.0873
     7.3104   7.3105   8.2010   8.2011

          k = 0.0023-0.9071-0.0002 (  2380 PWs)   bands (ev):

   -13.1013 -13.1013 -12.8676 -12.8676  -2.4621  -2.4620  -2.3615  -2.3614
    -1.4996  -1.4996  -0.1436  -0.1436   0.1151   0.1152   0.1596   0.1597
    10.1668  10.1668  11.8634  11.8635

          k = 0.0031-0.9073 0.8024 (  2388 PWs)   bands (ev):

   -11.9954 -11.9953 -11.7763 -11.7763  -3.8687  -3.8667  -3.7544  -3.7533
    -1.7279  -1.7270  -1.6571  -1.6546  -0.1984  -0.1973   1.0972   1.0976
     9.8948   9.9020  10.7294  10.7358

          k = 0.0007-0.9067-1.6054 (  2376 PWs)   bands (ev):

    -9.1691  -9.1661  -8.9759  -8.9746  -8.2580  -8.2580  -8.1055  -8.1026
    -1.4281  -1.4272  -1.3786  -1.3757   2.3152   2.3263   3.3869   3.4017
     6.0783   6.0901   7.3317   7.3409

          k =-0.4841 0.0028-0.0006 (  2400 PWs)   bands (ev):

   -14.5379 -14.2918  -9.5188  -9.3341  -8.1227  -7.9681  -3.1369  -1.8718
    -1.1715  -1.1216   1.9579   1.9899   1.9906   2.1119   2.1462   2.9553
     6.3104   7.4460   9.0421  11.3153

          k =-0.4833 0.0027 0.8021 (  2382 PWs)   bands (ev):

   -13.4088 -13.1774  -8.5495  -8.3809  -7.2665  -7.1150  -4.6267  -4.5208
    -1.7836  -1.2965  -1.2217  -0.5596   0.0589   0.1147   3.3678   4.3030
     5.7453   6.6915  10.5098  12.6377

          k =-0.4858 0.0032-1.6058 (  2388 PWs)   bands (ev):

   -10.1381 -10.1381  -9.9468  -9.9467  -5.6897  -5.6896  -5.5625  -5.5624
    -3.8024  -3.8023  -3.7039  -3.7039   1.9508   1.9509   3.0227   3.0228
     7.3367   7.3368   8.1664   8.1665

          k =-0.4818-0.9042-0.0007 (  2380 PWs)   bands (ev):

   -13.0985 -13.0985 -12.8708 -12.8708  -2.4616  -2.4615  -2.3624  -2.3623
    -1.4402  -1.4402  -0.2332  -0.2332   0.1156   0.1157   0.1602   0.1603
    10.8657  10.8657  11.8882  11.8883

          k =-0.4810-0.9044 0.8019 (  2384 PWs)   bands (ev):

   -11.9929 -11.9928 -11.7791 -11.7791  -3.8678  -3.8658  -3.7552  -3.7542
    -1.7275  -1.7264  -1.6575  -1.6552  -0.1440  -0.1429   1.0170   1.0172
     9.9211   9.9286  10.6901  10.6963

          k =-0.4835-0.9039-1.6060 (  2408 PWs)   bands (ev):

    -9.1672  -9.1642  -8.9780  -8.9767  -8.2566  -8.2565  -8.1073  -8.1043
    -1.4281  -1.4272  -1.3790  -1.3760   2.3509   2.3620   3.3388   3.3524
     6.1395   6.1497   7.2374   7.2462

     the Fermi energy is     4.5776 ev

!    total energy              =     -91.11590636 Ry
     Harris-Foulkes estimate   =     -91.11590638 Ry
     estimated scf accuracy    <       0.00000002 Ry

     The total energy is the sum of the following terms:

     one-electron contribution =     -87.85786270 Ry
     hartree contribution      =      57.41019603 Ry
     xc contribution           =     -27.98858575 Ry
     ewald contribution        =     -32.68048115 Ry
     smearing contrib. (-TS)   =       0.00082721 Ry

     convergence has been achieved in   8 iterations

     Forces acting on atoms (cartesian axes, Ry/au):

     atom    1 type  1   force =    -0.00816250   -0.00587704    0.00005864
     atom    2 type  1   force =    -0.00823863    0.00391700    0.00041612
     atom    3 type  1   force =    -0.00816680   -0.00587474    0.00004626
     atom    4 type  1   force =    -0.00824149    0.00390251    0.00042995
     atom    5 type  1   force =     0.00824488   -0.00399553   -0.00043279
     atom    6 type  1   force =     0.00815953    0.00594471   -0.00004085
     atom    7 type  1   force =     0.00816100    0.00598005   -0.00006307
     atom    8 type  1   force =     0.00824401   -0.00399696   -0.00041428

     Total force =     0.027233     Total SCF correction =     0.000588


     Computing stress (Cartesian axis) and pressure

          total   stress  (Ry/bohr**3)                   (kbar)     P=       13.44
   0.00029510   0.00003965  -0.00000935           43.41        5.83       -1.38
   0.00003965  -0.00031793  -0.00000060            5.83      -46.77       -0.09
  -0.00000935  -0.00000060   0.00029699           -1.38       -0.09       43.69


     number of scf cycles    =   3
     number of bfgs steps    =   2

     enthalpy old            =     -91.1094986038 Ry
     enthalpy new            =     -91.1158671088 Ry

     CASE: enthalpy_new < enthalpy_old

     new trust radius        =       0.2020107575 bohr
     new conv_thr            =       0.0000000824 Ry

     new unit-cell volume =    602.07735 a.u.^3 (    89.21866 Ang^3 )
     density =      1.78675 g/cm^3

CELL_PARAMETERS (bohr)
  15.946503952   0.124270551  -0.034762607
   0.094087263   8.143996540   0.001698447
  -0.011454971  -0.001060140   4.636504082

ATOMIC_POSITIONS (crystal)
C             0.7348556456        0.8844566679        0.7783315853
C             0.7349048010        0.7198495761        0.2783742934
C             0.7348547587        0.3844569428        0.2783317094
C             0.7349044980        0.2198495341        0.7783767638
C             0.1294719557        0.4178792133        0.2512815221
C             0.1295228255        0.2532909405        0.7513276918
C             0.1295224489        0.7532913884        0.2513259811
C             0.1294710666        0.9178787368        0.7512834531



     Writing output data file ./pp.save/
     NEW-OLD atomic charge density approx. for the potential
     extrapolated charge   33.31053, renormalised to   32.00000

     total cpu time spent up to now is       17.6 secs

     Self-consistent Calculation

     iteration #  1     ecut=    40.00 Ry     beta= 0.50
     Davidson diagonalization with overlap
     ethr =  1.00E-06,  avg # of iterations =  9.1

     total cpu time spent up to now is       19.9 secs

     total energy              =     -90.81281182 Ry
     Harris-Foulkes estimate   =     -87.74566951 Ry
     estimated scf accuracy    <       0.27547446 Ry

     iteration #  2     ecut=    40.00 Ry     beta= 0.50
     Davidson diagonalization with overlap
     ethr =  8.61E-04,  avg # of iterations =  4.5

     total cpu time spent up to now is       21.1 secs

     total energy              =     -91.11167366 Ry
     Harris-Foulkes estimate   =     -91.26285577 Ry
     estimated scf accuracy    <       0.42575405 Ry

     iteration #  3     ecut=    40.00 Ry     beta= 0.50
     Davidson diagonalization with overlap
     ethr =  8.61E-04,  avg # of iterations =  2.1

     total cpu time spent up to now is       21.7 secs

     total energy              =     -91.13415174 Ry
     Harris-Foulkes estimate   =     -91.14664317 Ry
     estimated scf accuracy    <       0.06447035 Ry

     iteration #  4     ecut=    40.00 Ry     beta= 0.50
     Davidson diagonalization with overlap
     ethr =  2.01E-04,  avg # of iterations =  1.3

     total cpu time spent up to now is       22.3 secs

     total energy              =     -91.11993264 Ry
     Harris-Foulkes estimate   =     -91.13563193 Ry
     estimated scf accuracy    <       0.03289582 Ry

     iteration #  5     ecut=    40.00 Ry     beta= 0.50
     Davidson diagonalization with overlap
     ethr =  1.03E-04,  avg # of iterations =  2.7

     total cpu time spent up to now is       23.1 secs

     total energy              =     -91.12456701 Ry
     Harris-Foulkes estimate   =     -91.12484901 Ry
     estimated scf accuracy    <       0.00062050 Ry

     iteration #  6     ecut=    40.00 Ry     beta= 0.50
     Davidson diagonalization with overlap
     ethr =  1.94E-06,  avg # of iterations =  4.1

     total cpu time spent up to now is       24.2 secs

     total energy              =     -91.12468426 Ry
     Harris-Foulkes estimate   =     -91.12470862 Ry
     estimated scf accuracy    <       0.00004957 Ry

     iteration #  7     ecut=    40.00 Ry     beta= 0.50
     Davidson diagonalization with overlap
     ethr =  1.55E-07,  avg # of iterations =  2.0

     total cpu time spent up to now is       25.0 secs

     total energy              =     -91.12469009 Ry
     Harris-Foulkes estimate   =     -91.12469173 Ry
     estimated scf accuracy    <       0.00000444 Ry

     iteration #  8     ecut=    40.00 Ry     beta= 0.50
     Davidson diagonalization with overlap
     ethr =  1.39E-08,  avg # of iterations =  2.1

     total cpu time spent up to now is       25.7 secs

     total energy              =     -91.12469065 Ry
     Harris-Foulkes estimate   =     -91.12469082 Ry
     estimated scf accuracy    <       0.00000063 Ry

     iteration #  9     ecut=    40.00 Ry     beta= 0.50
     Davidson diagonalization with overlap
     ethr =  1.96E-09,  avg # of iterations =  1.9

     total cpu time spent up to now is       26.5 secs

     total energy              =     -91.12469060 Ry
     Harris-Foulkes estimate   =     -91.12469070 Ry
     estimated scf accuracy    <       0.00000019 Ry

     iteration # 10     ecut=    40.00 Ry     beta= 0.50
     Davidson diagonalization with overlap
     ethr =  5.95E-10,  avg # of iterations =  2.2

     total cpu time spent up to now is       27.4 secs

     End of self-consistent calculation

          k = 0.0000 0.0000 0.0000 (  2381 PWs)   bands (ev):

   -14.8595 -14.6950  -9.7757  -9.6584  -8.4861  -8.3881  -3.4112  -2.3222
    -1.6125  -1.5829   1.5772   1.5954   1.7423   1.7604   1.7958   2.5486
     6.0073   6.9858   7.7938  12.4719

          k = 0.0017-0.0002 0.7992 (  2372 PWs)   bands (ev):

   -13.7422 -13.5884  -8.8166  -8.7102  -7.6580  -7.5627  -5.0095  -4.9421
    -2.0682  -1.6393  -1.5941  -1.0244  -0.3360  -0.3035   3.1614   3.8860
     5.4264   6.1711   9.2713  12.6471

          k =-0.0035 0.0004-1.5984 (  2382 PWs)   bands (ev):

   -10.5087 -10.5086 -10.3839 -10.3838  -5.9866  -5.9866  -5.9076  -5.9076
    -4.1810  -4.1810  -4.1200  -4.1200   1.6377   1.6378   2.5147   2.5148
     7.0922   7.0923   7.7219   7.7220

          k = 0.0071-0.9101-0.0002 (  2380 PWs)   bands (ev):

   -13.4129 -13.4129 -13.2621 -13.2621  -2.7819  -2.7819  -2.7211  -2.7211
    -1.6974  -1.6974  -0.6730  -0.6730  -0.3059  -0.3058  -0.2801  -0.2801
     9.6988   9.6988  11.6027  11.6027

          k = 0.0088-0.9103 0.7990 (  2388 PWs)   bands (ev):

   -12.3189 -12.3187 -12.1782 -12.1780  -4.2653  -4.2644  -4.1957  -4.1940
    -2.0446  -2.0427  -2.0015  -2.0008  -0.4134  -0.4132   0.5585   0.5602
     9.6142   9.6189  10.2112  10.2196

          k = 0.0036-0.9097-1.5986 (  2376 PWs)   bands (ev):

    -9.5444  -9.5443  -9.4254  -9.4216  -8.5880  -8.5846  -8.4891  -8.4884
    -1.7611  -1.7592  -1.7327  -1.7314   2.0495   2.0575   2.8250   2.8428
     5.8499   5.8662   6.8079   6.8139

          k =-0.4648 0.0054-0.0011 (  2400 PWs)   bands (ev):

   -14.8571 -14.6975  -9.7744  -9.6598  -8.4849  -8.3894  -3.3574  -2.3987
    -1.6126  -1.5832   1.5766   1.5946   1.7417   1.7596   1.8236   2.5132
     6.0631   6.9041   8.4906  10.3391

          k =-0.4630 0.0052 0.7981 (  2382 PWs)   bands (ev):

   -13.7401 -13.5907  -8.8155  -8.7114  -7.6570  -7.5639  -5.0088  -4.9427
    -2.0183  -1.6387  -1.5943  -1.0946  -0.3354  -0.3033   3.1872   3.8534
     5.4550   6.1335   9.9550  11.6826

          k =-0.4683 0.0057-1.5995 (  2388 PWs)   bands (ev):

   -10.5072 -10.5072 -10.3855 -10.3854  -5.9858  -5.9858  -5.9085  -5.9084
    -4.1803  -4.1802  -4.1207  -4.1206   1.6741   1.6741   2.4664   2.4665
     7.1129   7.1130   7.6965   7.6965

          k =-0.4577-0.9047-0.0013 (  2380 PWs)   bands (ev):

   -13.4109 -13.4109 -13.2643 -13.2642  -2.7816  -2.7816  -2.7218  -2.7218
    -1.6493  -1.6493  -0.7404  -0.7404  -0.3055  -0.3055  -0.2795  -0.2795
    10.3485  10.3485  11.6018  11.6018

          k =-0.4559-0.9049 0.7979 (  2384 PWs)   bands (ev):

   -12.3171 -12.3170 -12.1802 -12.1799  -4.2646  -4.2638  -4.1963  -4.1945
    -2.0443  -2.0425  -2.0020  -2.0011  -0.3694  -0.3694   0.4985   0.4998
     9.6355   9.6407  10.1793  10.1877

          k =-0.4612-0.9043-1.5997 (  2408 PWs)   bands (ev):

    -9.5431  -9.5430  -9.4269  -9.4230  -8.5870  -8.5835  -8.4903  -8.4896
    -1.7612  -1.7593  -1.7330  -1.7317   2.0776   2.0856   2.7891   2.8064
     5.9012   5.9170   6.7345   6.7404

     the Fermi energy is     4.1215 ev

!    total energy              =     -91.12469065 Ry
     Harris-Foulkes estimate   =     -91.12469065 Ry
     estimated scf accuracy    <          1.7E-09 Ry

     The total energy is the sum of the following terms:

     one-electron contribution =     -93.38827353 Ry
     hartree contribution      =      59.71741549 Ry
     xc contribution           =     -27.96302460 Ry
     ewald contribution        =     -29.49163401 Ry
     smearing contrib. (-TS)   =       0.00082600 Ry

     convergence has been achieved in  10 iterations

     Forces acting on atoms (cartesian axes, Ry/au):

     atom    1 type  1   force =    -0.00426668   -0.01284967    0.00045669
     atom    2 type  1   force =    -0.00450227    0.01163690   -0.00018000
     atom    3 type  1   force =    -0.00426314   -0.01285267    0.00046422
     atom    4 type  1   force =    -0.00450184    0.01163760   -0.00019164
     atom    5 type  1   force =     0.00451169   -0.01145425    0.00019574
     atom    6 type  1   force =     0.00425326    0.01266769   -0.00047018
     atom    7 type  1   force =     0.00425379    0.01266202   -0.00045549
     atom    8 type  1   force =     0.00451519   -0.01144763    0.00018066

     Total force =     0.036593     Total SCF correction =     0.000116


     Computing stress (Cartesian axis) and pressure

          total   stress  (Ry/bohr**3)                   (kbar)     P=        4.72
   0.00015422   0.00002710  -0.00000554           22.69        3.99       -0.82
   0.00002710  -0.00010847   0.00000228            3.99      -15.96        0.33
  -0.00000554   0.00000228   0.00005041           -0.82        0.33        7.42


     number of scf cycles    =   4
     number of bfgs steps    =   3

     enthalpy old            =     -91.1158671088 Ry
     enthalpy new            =     -91.1246497180 Ry

     CASE: enthalpy_new < enthalpy_old

     new trust radius        =       0.2266112017 bohr
     new conv_thr            =       0.0000001285 Ry

     new unit-cell volume =    629.42216 a.u.^3 (    93.27074 Ang^3 )
     density =      1.70913 g/cm^3

CELL_PARAMETERS (bohr)
  16.676597128   0.225737583  -0.057027312
   0.149128687   8.123108789   0.002339043
  -0.018632817  -0.000678587   4.647572792

ATOMIC_POSITIONS (crystal)
C             0.7310397688        0.8829545398        0.7787511143
C             0.7311189761        0.7196633684        0.2786354425
C             0.7310371991        0.3829542386        0.2787553776
C             0.7311174619        0.2196642883        0.7786357730
C             0.1332597088        0.4180998801        0.2510253351
C             0.1333385446        0.2547588855        0.7509032099
C             0.1333380586        0.7547569012        0.2509053799
C             0.1332582822        0.9181008981        0.7510213677



     Writing output data file ./pp.save/
     NEW-OLD atomic charge density approx. for the potential
     extrapolated charge   33.39020, renormalised to   32.00000

     total cpu time spent up to now is       27.5 secs

     Self-consistent Calculation

     iteration #  1     ecut=    40.00 Ry     beta= 0.50
     Davidson diagonalization with overlap
     ethr =  1.00E-06,  avg # of iterations =  8.8

     total cpu time spent up to now is       30.4 secs

     total energy              =     -90.70737986 Ry
     Harris-Foulkes estimate   =     -87.30997118 Ry
     estimated scf accuracy    <       0.37708528 Ry

     iteration #  2     ecut=    40.00 Ry     beta= 0.50
     Davidson diagonalization with overlap
     ethr =  1.18E-03,  avg # of iterations =  4.3

     total cpu time spent up to now is       31.9 secs

     total energy              =     -91.11272078 Ry
     Harris-Foulkes estimate   =     -91.31192004 Ry
     estimated scf accuracy    <       0.55329593 Ry

     iteration #  3     ecut=    40.00 Ry     beta= 0.50
     Davidson diagonalization with overlap
     ethr =  1.18E-03,  avg # of iterations =  2.0

     total cpu time spent up to now is       32.7 secs

     total energy              =     -91.14226534 Ry
     Harris-Foulkes estimate   =     -91.15900785 Ry
     estimated scf accuracy    <       0.08403218 Ry

     iteration #  4     ecut=    40.00 Ry     beta= 0.50
     Davidson diagonalization with overlap
     ethr =  2.63E-04,  avg # of iterations =  1.4

     total cpu time spent up to now is       33.5 secs

     total energy              =     -91.12514218 Ry
     Harris-Foulkes estimate   =     -91.14418676 Ry
     estimated scf accuracy    <       0.04264466 Ry

     iteration #  5     ecut=    40.00 Ry     beta= 0.50
     Davidson diagonalization with overlap
     ethr =  1.33E-04,  avg # of iterations =  2.2

     total cpu time spent up to now is       34.5 secs

     total energy              =     -91.12967077 Ry
     Harris-Foulkes estimate   =     -91.13039083 Ry
     estimated scf accuracy    <       0.00194476 Ry

     iteration #  6     ecut=    40.00 Ry     beta= 0.50
     Davidson diagonalization with overlap
     ethr =  6.08E-06,  avg # of iterations =  3.8

     total cpu time spent up to now is       35.8 secs

     total energy              =     -91.12969924 Ry
     Harris-Foulkes estimate   =     -91.12988287 Ry
     estimated scf accuracy    <       0.00034775 Ry

     iteration #  7     ecut=    40.00 Ry     beta= 0.50
     Davidson diagonalization with overlap
     ethr =  1.09E-06,  avg # of iterations =  2.2

     total cpu time spent up to now is       36.9 secs

     total energy              =     -91.12976154 Ry
     Harris-Foulkes estimate   =     -91.12976280 Ry
     estimated scf accuracy    <       0.00000314 Ry

     iteration #  8     ecut=    40.00 Ry     beta= 0.50
     Davidson diagonalization with overlap
     ethr =  9.81E-09,  avg # of iterations =  3.0

     total cpu time spent up to now is       38.2 secs

     total energy              =     -91.12976301 Ry
     Harris-Foulkes estimate   =     -91.12976312 Ry
     estimated scf accuracy    <       0.00000030 Ry

     iteration #  9     ecut=    40.00 Ry     beta= 0.50
     Davidson diagonalization with overlap
     ethr =  9.27E-10,  avg # of iterations =  2.0

     total cpu time spent up to now is       39.2 secs

     End of self-consistent calculation

          k = 0.0000 0.0000 0.0000 (  2381 PWs)   bands (ev):

   -15.2139 -15.1151 -10.1094 -10.0431  -8.8164  -8.7607  -3.6547  -2.8691
    -2.0868  -2.0711   1.0975   1.1065   1.4522   1.4612   1.5392   2.0399
     5.8175   6.5126   7.2962  11.2239

          k = 0.0027-0.0003 0.7973 (  2372 PWs)   bands (ev):

   -14.1051 -14.0132  -9.1614  -9.1017  -7.9993  -7.9455  -5.4368  -5.3984
    -2.3190  -2.0694  -2.0453  -1.5694  -0.6628  -0.6455   2.8965   3.3772
     5.1839   5.6889   8.7733  12.4947

          k =-0.0055 0.0006-1.5946 (  2382 PWs)   bands (ev):

   -10.8955 -10.8954 -10.8223 -10.8222  -6.3640  -6.3638  -6.3205  -6.3204
    -4.5253  -4.5253  -4.4913  -4.4913   1.3688   1.3689   1.9851   1.9852
     6.8026   6.8028   7.2141   7.2142

          k = 0.0124-0.9126-0.0001 (  2380 PWs)   bands (ev):

   -13.7617 -13.7617 -13.6718 -13.6718  -3.0883  -3.0882  -3.0544  -3.0543
    -1.9390  -1.9389  -1.2070  -1.2069  -0.7799  -0.7798  -0.7666  -0.7665
     9.2245   9.2245  11.3217  11.3218

          k = 0.0151-0.9128 0.7972 (  2388 PWs)   bands (ev):

   -12.6761 -12.6759 -12.5927 -12.5925  -4.6756  -4.6720  -4.6362  -4.6331
    -2.3858  -2.3824  -2.3631  -2.3590  -0.6639  -0.6617   0.0279   0.0281
     9.3190   9.3270   9.7246   9.7274

          k = 0.0069-0.9120-1.5947 (  2376 PWs)   bands (ev):

    -9.9247  -9.9198  -9.8533  -9.8517  -8.9749  -8.9717  -8.9196  -8.9140
    -2.0982  -2.0976  -2.0855  -2.0824   1.7799   1.7950   2.3160   2.3254
     5.5705   5.5790   6.2503   6.2672

          k =-0.4445 0.0082-0.0018 (  2400 PWs)   bands (ev):

   -15.2123 -15.1168 -10.1086 -10.0440  -8.8155  -8.7615  -3.6118  -2.9257
    -2.0869  -2.0714   1.0968   1.1058   1.4517   1.4605   1.5601   2.0146
     5.8635   6.4516   7.9381   9.3945

          k =-0.4418 0.0079 0.7955 (  2382 PWs)   bands (ev):

   -14.1037 -14.0147  -9.1606  -9.1024  -7.9987  -7.9463  -5.4364  -5.3988
    -2.2793  -2.0689  -2.0454  -1.6212  -0.6623  -0.6453   2.9161   3.3538
     5.2065   5.6619   9.4056  10.7641

          k =-0.4500 0.0087-1.5964 (  2388 PWs)   bands (ev):

   -10.8945 -10.8944 -10.8233 -10.8233  -6.3634  -6.3633  -6.3212  -6.3210
    -4.5248  -4.5248  -4.4917  -4.4917   1.3973   1.3974   1.9496   1.9497
     6.8181   6.8182   7.1962   7.1963

          k =-0.4322-0.9044-0.0019 (  2380 PWs)   bands (ev):

   -13.7604 -13.7603 -13.6732 -13.6732  -3.0881  -3.0881  -3.0549  -3.0549
    -1.9015  -1.9014  -1.2559  -1.2558  -0.7795  -0.7794  -0.7661  -0.7660
     9.8168   9.8168  11.0820  11.0821

          k =-0.4294-0.9047 0.7954 (  2384 PWs)   bands (ev):

   -12.6749 -12.6747 -12.5939 -12.5937  -4.6753  -4.6715  -4.6365  -4.6335
    -2.3857  -2.3823  -2.3633  -2.3593  -0.6295  -0.6278  -0.0161  -0.0151
     9.3351   9.3440   9.7000   9.7037

          k =-0.4376-0.9038-1.5965 (  2408 PWs)   bands (ev):

    -9.9238  -9.9189  -9.8543  -9.8527  -8.9741  -8.9710  -8.9204  -8.9147
    -2.0984  -2.0977  -2.0857  -2.0826   1.8013   1.8165   2.2898   2.2991
     5.6122   5.6205   6.1954   6.2120

     the Fermi energy is     3.6114 ev

!    total energy              =     -91.12976300 Ry
     Harris-Foulkes estimate   =     -91.12976304 Ry
     estimated scf accuracy    <       0.00000005 Ry

     The total energy is the sum of the following terms:

     one-electron contribution =     -99.78437313 Ry
     hartree contribution      =      62.45193980 Ry
     xc contribution           =     -27.95383095 Ry
     ewald contribution        =     -25.84446522 Ry
     smearing contrib. (-TS)   =       0.00096650 Ry

     convergence has been achieved in   9 iterations

     Forces acting on atoms (cartesian axes, Ry/au):

     atom    1 type  1   force =    -0.00159860   -0.00248981   -0.00051606
     atom    2 type  1   force =    -0.00244263    0.00187454    0.00067656
     atom    3 type  1   force =    -0.00158872   -0.00248347   -0.00053613
     atom    4 type  1   force =    -0.00243905    0.00186366    0.00068926
     atom    5 type  1   force =     0.00242558   -0.00240377   -0.00070374
     atom    6 type  1   force =     0.00160554    0.00301485    0.00054551
     atom    7 type  1   force =     0.00160679    0.00304086    0.00052162
     atom    8 type  1   force =     0.00243109   -0.00241684   -0.00067702

     Total force =     0.009288     Total SCF correction =     0.000869


     Computing stress (Cartesian axis) and pressure

          total   stress  (Ry/bohr**3)                   (kbar)     P=        2.87
   0.00006821   0.00001707  -0.00000324           10.03        2.51       -0.48
   0.00001707   0.00000254  -0.00000259            2.51        0.37       -0.38
  -0.00000324  -0.00000259  -0.00001215           -0.48       -0.38       -1.79


     number of scf cycles    =   5
     number of bfgs steps    =   4

     enthalpy old            =     -91.1246497180 Ry
     enthalpy new            =     -91.1297202147 Ry

     CASE: enthalpy_new < enthalpy_old

     new trust radius        =       0.1854706152 bohr
     new conv_thr            =       0.0000000304 Ry

     new unit-cell volume =    652.54983 a.u.^3 (    96.69791 Ang^3 )
     density =      1.64855 g/cm^3

CELL_PARAMETERS (bohr)
  17.287697160   0.313627266  -0.076176457
   0.197264942   8.122359724   0.001494589
  -0.024822054  -0.001167897   4.649389204

ATOMIC_POSITIONS (crystal)
C             0.7278739268        0.8821011306        0.7788367509
C             0.7278772986        0.7190784710        0.2791358094
C             0.7278710598        0.3821020950        0.2788355566
C             0.7278751855        0.2190775622        0.7791412326
C             0.1364991951        0.4185802178        0.2505161610
C             0.1365069559        0.2557159563        0.7508268566
C             0.1365065787        0.7557186206        0.2508206065
C             0.1364977994        0.9185789462        0.7505200264



     Writing output data file ./pp.save/
     NEW-OLD atomic charge density approx. for the potential
     extrapolated charge   33.13413, renormalised to   32.00000

     total cpu time spent up to now is       39.4 secs

     Self-consistent Calculation

     iteration #  1     ecut=    40.00 Ry     beta= 0.50
     Davidson diagonalization with overlap
     ethr =  1.00E-06,  avg # of iterations =  8.9

     total cpu time spent up to now is       42.9 secs

     total energy              =     -90.94653387 Ry
     Harris-Foulkes estimate   =     -87.83933649 Ry
     estimated scf accuracy    <       0.16442177 Ry

     iteration #  2     ecut=    40.00 Ry     beta= 0.50
     Davidson diagonalization with overlap
     ethr =  5.14E-04,  avg # of iterations =  4.0

     total cpu time spent up to now is       44.8 secs

     total energy              =     -91.12287581 Ry
     Harris-Foulkes estimate   =     -91.20910646 Ry
     estimated scf accuracy    <       0.24071741 Ry

     iteration #  3     ecut=    40.00 Ry     beta= 0.50
     Davidson diagonalization with overlap
     ethr =  5.14E-04,  avg # of iterations =  2.1

     total cpu time spent up to now is       45.9 secs

     total energy              =     -91.13717663 Ry
     Harris-Foulkes estimate   =     -91.14341981 Ry
     estimated scf accuracy    <       0.03451631 Ry

     iteration #  4     ecut=    40.00 Ry     beta= 0.50
     Davidson diagonalization with overlap
     ethr =  1.08E-04,  avg # of iterations =  1.0

     total cpu time spent up to now is       46.7 secs

     total energy              =     -91.12755347 Ry
     Harris-Foulkes estimate   =     -91.13788265 Ry
     estimated scf accuracy    <       0.01888220 Ry

     iteration #  5     ecut=    40.00 Ry     beta= 0.50
     Davidson diagonalization with overlap
     ethr =  5.90E-05,  avg # of iterations =  2.6

     total cpu time spent up to now is       48.1 secs

     total energy              =     -91.13141706 Ry
     Harris-Foulkes estimate   =     -91.13142577 Ry
     estimated scf accuracy    <       0.00005660 Ry

     iteration #  6     ecut=    40.00 Ry     beta= 0.50
     Davidson diagonalization with overlap
     ethr =  1.77E-07,  avg # of iterations =  4.0

     total cpu time spent up to now is       50.0 secs

     total energy              =     -91.13144162 Ry
     Harris-Foulkes estimate   =     -91.13145796 Ry
     estimated scf accuracy    <       0.00003121 Ry

     iteration #  7     ecut=    40.00 Ry     beta= 0.50
     Davidson diagonalization with overlap
     ethr =  9.75E-08,  avg # of iterations =  2.0

     total cpu time spent up to now is       51.2 secs

     total energy              =     -91.13144893 Ry
     Harris-Foulkes estimate   =     -91.13144939 Ry
     estimated scf accuracy    <       0.00000112 Ry

     iteration #  8     ecut=    40.00 Ry     beta= 0.50
     Davidson diagonalization with overlap
     ethr =  3.51E-09,  avg # of iterations =  2.0

     total cpu time spent up to now is       52.5 secs

     total energy              =     -91.13144912 Ry
     Harris-Foulkes estimate   =     -91.13144915 Ry
     estimated scf accuracy    <       0.00000007 Ry

     iteration #  9     ecut=    40.00 Ry     beta= 0.50
     Davidson diagonalization with overlap
     ethr =  2.25E-10,  avg # of iterations =  2.2

     total cpu time spent up to now is       53.8 secs

     End of self-consistent calculation

          k = 0.0000 0.0000 0.0000 (  2381 PWs)   bands (ev):

   -15.4945 -15.4307 -10.4005 -10.3603  -9.0927  -9.0576  -3.8596  -3.2672
    -2.4019  -2.3922   0.7672   0.7769   1.1701   1.1842   1.3063   1.6563
     5.6210   6.1360   6.9193  10.3440

          k = 0.0035-0.0002 0.7970 (  2372 PWs)   bands (ev):

   -14.3880 -14.3289  -9.4554  -9.4194  -8.2770  -8.2431  -5.7405  -5.7168
    -2.5270  -2.3854  -2.3705  -1.9640  -0.9466  -0.9319   2.6607   2.9958
     4.9661   5.3258   8.4002  11.6612

          k =-0.0070 0.0005-1.5940 (  2382 PWs)   bands (ev):

   -11.1845 -11.1844 -11.1382 -11.1381  -6.6665  -6.6663  -6.6407  -6.6405
    -4.8085  -4.8084  -4.7866  -4.7866   1.1511   1.1512   1.6047   1.6048
     6.5562   6.5564   6.8393   6.8395

          k = 0.0166-0.9128-0.0001 (  2380 PWs)   bands (ev):

   -14.0437 -14.0436 -13.9860 -13.9859  -3.3716  -3.3716  -3.3497  -3.3496
    -2.1489  -2.1488  -1.6012  -1.6012  -1.0992  -1.0990  -1.0904  -1.0903
     8.8580   8.8580  11.0350  11.0350

          k = 0.0201-0.9130 0.7969 (  2388 PWs)   bands (ev):

   -12.9605 -12.9599 -12.9073 -12.9066  -4.9775  -4.9692  -4.9540  -4.9451
    -2.6818  -2.6723  -2.6675  -2.6585  -0.8770  -0.8747  -0.3642  -0.3596
     9.0758   9.0786   9.3568   9.3698

          k = 0.0095-0.9124-1.5941 (  2376 PWs)   bands (ev):

   -10.2136 -10.2058 -10.1715 -10.1610  -9.2755  -9.2627  -9.2393  -9.2285
    -2.3929  -2.3877  -2.3830  -2.3795   1.5649   1.5666   1.9353   1.9611
     5.3336   5.3621   5.8583   5.8630

          k =-0.4289 0.0104-0.0023 (  2400 PWs)   bands (ev):

   -15.4933 -15.4319 -10.3999 -10.3610  -9.0921  -9.0582  -3.8239  -3.3118
    -2.4019  -2.3925   0.7666   0.7763   1.1696   1.1836   1.3228   1.6367
     5.6601   6.0873   7.5203   8.7178

          k =-0.4254 0.0102 0.7947 (  2382 PWs)   bands (ev):

   -14.3870 -14.3300  -9.4549  -9.4200  -8.2766  -8.2436  -5.7402  -5.7171
    -2.4940  -2.3850  -2.3705  -2.0048  -0.9461  -0.9316   2.6761   2.9776
     4.9846   5.3048   8.9933  10.1087

          k =-0.4359 0.0109-1.5963 (  2388 PWs)   bands (ev):

   -11.1838 -11.1837 -11.1390 -11.1388  -6.6661  -6.6659  -6.6411  -6.6410
    -4.8081  -4.8080  -4.7869  -4.7868   1.1743   1.1744   1.5769   1.5770
     6.5682   6.5684   6.8256   6.8258

          k =-0.4123-0.9024-0.0024 (  2380 PWs)   bands (ev):

   -14.0427 -14.0427 -13.9870 -13.9869  -3.3715  -3.3715  -3.3501  -3.3500
    -2.1183  -2.1183  -1.6391  -1.6391  -1.0989  -1.0987  -1.0900  -1.0898
     9.4020   9.4020  10.4992  10.4993

          k =-0.4088-0.9026 0.7946 (  2384 PWs)   bands (ev):

   -12.9597 -12.9590 -12.9082 -12.9075  -4.9771  -4.9690  -4.9543  -4.9453
    -2.6817  -2.6723  -2.6676  -2.6585  -0.8498  -0.8466  -0.3974  -0.3938
     9.0896   9.0913   9.3372   9.3511

          k =-0.4194-0.9019-1.5964 (  2408 PWs)   bands (ev):

   -10.2129 -10.2052 -10.1721 -10.1616  -9.2749  -9.2621  -9.2398  -9.2290
    -2.3929  -2.3879  -2.3832  -2.3795   1.5821   1.5838   1.9150   1.9406
     5.3684   5.3972   5.8144   5.8191

     the Fermi energy is     3.2106 ev

!    total energy              =     -91.13144913 Ry
     Harris-Foulkes estimate   =     -91.13144913 Ry
     estimated scf accuracy    <          7.3E-09 Ry

     The total energy is the sum of the following terms:

     one-electron contribution =    -105.04585794 Ry
     hartree contribution      =      64.72122537 Ry
     xc contribution           =     -27.94516401 Ry
     ewald contribution        =     -22.86308894 Ry
     smearing contrib. (-TS)   =       0.00143640 Ry

     convergence has been achieved in   9 iterations

     Forces acting on atoms (cartesian axes, Ry/au):

     atom    1 type  1   force =    -0.00089946    0.00008883    0.00175013
     atom    2 type  1   force =    -0.00101185   -0.00035920   -0.00164421
     atom    3 type  1   force =    -0.00088934    0.00007914    0.00177394
     atom    4 type  1   force =    -0.00100515   -0.00034524   -0.00167493
     atom    5 type  1   force =     0.00106847    0.00193724    0.00170252
     atom    6 type  1   force =     0.00083161   -0.00166167   -0.00180686
     atom    7 type  1   force =     0.00083070   -0.00169523   -0.00176294
     atom    8 type  1   force =     0.00107502    0.00195613    0.00166234

     Total force =     0.006674     Total SCF correction =     0.000336


     Computing stress (Cartesian axis) and pressure

          total   stress  (Ry/bohr**3)                   (kbar)     P=        0.23
   0.00001781   0.00000858  -0.00000172            2.62        1.26       -0.25
   0.00000858  -0.00000273   0.00000818            1.26       -0.40        1.20
  -0.00000172   0.00000818  -0.00001032           -0.25        1.20       -1.52


     number of scf cycles    =   6
     number of bfgs steps    =   5

     enthalpy old            =     -91.1297202147 Ry
     enthalpy new            =     -91.1314047697 Ry

     CASE: enthalpy_new < enthalpy_old

     new trust radius        =       0.1010880651 bohr
     new conv_thr            =       0.0000000196 Ry

     new unit-cell volume =    664.95798 a.u.^3 (    98.53660 Ang^3 )
     density =      1.61779 g/cm^3

CELL_PARAMETERS (bohr)
  17.626655150   0.364512814  -0.087366945
   0.225278846   8.121128506   0.004241549
  -0.028417113   0.000441850   4.648045159

ATOMIC_POSITIONS (crystal)
C             0.7260574967        0.8815945018        0.7795082834
C             0.7260381342        0.7187631955        0.2788098784
C             0.7260552272        0.3815939784        0.2795139514
C             0.7260363871        0.2187645719        0.7788068216
C             0.1383481636        0.4191682956        0.2508587168
C             0.1383128831        0.2559504849        0.7501392241
C             0.1383122970        0.7559478168        0.2501451040
C             0.1383474111        0.9191701551        0.7508510202



     Writing output data file ./pp.save/
     NEW-OLD atomic charge density approx. for the potential
     extrapolated charge   32.59712, renormalised to   32.00000

     total cpu time spent up to now is       53.9 secs

     Self-consistent Calculation

     iteration #  1     ecut=    40.00 Ry     beta= 0.50
     Davidson diagonalization with overlap
     ethr =  1.00E-06,  avg # of iterations =  7.3

     total cpu time spent up to now is       57.8 secs

     total energy              =     -91.09195961 Ry
     Harris-Foulkes estimate   =     -89.34645990 Ry
     estimated scf accuracy    <       0.03437033 Ry

     iteration #  2     ecut=    40.00 Ry     beta= 0.50
     Davidson diagonalization with overlap
     ethr =  1.07E-04,  avg # of iterations =  3.9

     total cpu time spent up to now is       60.0 secs

     total energy              =     -91.12977291 Ry
     Harris-Foulkes estimate   =     -91.14767605 Ry
     estimated scf accuracy    <       0.05040291 Ry

     iteration #  3     ecut=    40.00 Ry     beta= 0.50
     Davidson diagonalization with overlap
     ethr =  1.07E-04,  avg # of iterations =  2.1

     total cpu time spent up to now is       61.4 secs

     total energy              =     -91.13278840 Ry
     Harris-Foulkes estimate   =     -91.13412375 Ry
     estimated scf accuracy    <       0.00707431 Ry

     iteration #  4     ecut=    40.00 Ry     beta= 0.50
     Davidson diagonalization with overlap
     ethr =  2.21E-05,  avg # of iterations =  1.2

     total cpu time spent up to now is       62.5 secs

     total energy              =     -91.13078929 Ry
     Harris-Foulkes estimate   =     -91.13294809 Ry
     estimated scf accuracy    <       0.00369578 Ry

     iteration #  5     ecut=    40.00 Ry     beta= 0.50
     Davidson diagonalization with overlap
     ethr =  1.15E-05,  avg # of iterations =  2.8

     total cpu time spent up to now is       64.3 secs

     total energy              =     -91.13171339 Ry
     Harris-Foulkes estimate   =     -91.13173747 Ry
     estimated scf accuracy    <       0.00011015 Ry

     iteration #  6     ecut=    40.00 Ry     beta= 0.50
     Davidson diagonalization with overlap
     ethr =  3.44E-07,  avg # of iterations =  2.0

     total cpu time spent up to now is       65.7 secs

     total energy              =     -91.13171238 Ry
     Harris-Foulkes estimate   =     -91.13172673 Ry
     estimated scf accuracy    <       0.00004869 Ry

     iteration #  7     ecut=    40.00 Ry     beta= 0.50
     Davidson diagonalization with overlap
     ethr =  1.52E-07,  avg # of iterations =  1.1

     total cpu time spent up to now is       66.8 secs

     total energy              =     -91.13170635 Ry
     Harris-Foulkes estimate   =     -91.13171498 Ry
     estimated scf accuracy    <       0.00001376 Ry

     iteration #  8     ecut=    40.00 Ry     beta= 0.50
     Davidson diagonalization with overlap
     ethr =  4.30E-08,  avg # of iterations =  2.0

     total cpu time spent up to now is       68.4 secs

     total energy              =     -91.13171032 Ry
     Harris-Foulkes estimate   =     -91.13171115 Ry
     estimated scf accuracy    <       0.00000164 Ry

     iteration #  9     ecut=    40.00 Ry     beta= 0.50
     Davidson diagonalization with overlap
     ethr =  5.11E-09,  avg # of iterations =  2.0

     total cpu time spent up to now is       69.9 secs

     End of self-consistent calculation

          k = 0.0000 0.0000 0.0000 (  2381 PWs)   bands (ev):

   -15.6457 -15.5952 -10.5521 -10.5219  -9.2524  -9.2179  -3.9732  -3.4689
    -2.5513  -2.5440   0.6147   0.6305   1.0010   1.0356   1.1861   1.4703
     5.5046   5.9375   6.7285   9.9118

          k = 0.0040-0.0005 0.7972 (  2372 PWs)   bands (ev):

   -14.5391 -14.4924  -9.6069  -9.5801  -8.4361  -8.4013  -5.8914  -5.8734
    -2.6411  -2.5359  -2.5223  -2.1630  -1.1131  -1.0831   2.5404   2.8121
     4.8434   5.1393   8.2128  11.2500

          k =-0.0079 0.0011-1.5945 (  2382 PWs)   bands (ev):

   -11.3352 -11.3350 -11.2987 -11.2985  -6.8174  -6.8171  -6.7983  -6.7980
    -4.9699  -4.9698  -4.9432  -4.9431   1.0333   1.0335   1.4140   1.4142
     6.4340   6.4343   6.6619   6.6621

          k = 0.0189-0.9131 0.0002 (  2380 PWs)   bands (ev):

   -14.1955 -14.1954 -14.1499 -14.1499  -3.5330  -3.5329  -3.5067  -3.5066
    -2.2637  -2.2637  -1.7997  -1.7996  -1.2487  -1.2486  -1.2403  -1.2401
     8.6733   8.6733  10.8689  10.8690

          k = 0.0228-0.9136 0.7974 (  2388 PWs)   bands (ev):

   -13.1126 -13.1111 -13.0706 -13.0691  -5.1345  -5.1152  -5.1143  -5.0957
    -2.8463  -2.8306  -2.8247  -2.8092  -0.9959  -0.9873  -0.5610  -0.5540
     8.9421   8.9630   9.1811   9.1952

          k = 0.0110-0.9120-1.5943 (  2376 PWs)   bands (ev):

   -10.3716 -10.3497 -10.3355 -10.3159  -9.4338  -9.4079  -9.4079  -9.3800
    -2.5572  -2.5470  -2.5411  -2.5307   1.4256   1.4642   1.7526   1.7693
     5.2252   5.2458   5.6463   5.6954

          k =-0.4207 0.0117-0.0026 (  2400 PWs)   bands (ev):

   -15.6447 -15.5963 -10.5516 -10.5225  -9.2520  -9.2182  -3.9407  -3.5081
    -2.5513  -2.5443   0.6142   0.6300   1.0005   1.0351   1.2006   1.4532
     5.5401   5.8945   7.3094   8.3821

          k =-0.4167 0.0111 0.7947 (  2382 PWs)   bands (ev):

   -14.5382 -14.4933  -9.6065  -9.5806  -8.4358  -8.4016  -5.8911  -5.8737
    -2.6114  -2.5355  -2.5223  -2.1990  -1.1127  -1.0828   2.5538   2.7961
     4.8597   5.1208   8.7863   9.7847

          k =-0.4286 0.0127-1.5970 (  2388 PWs)   bands (ev):

   -11.3346 -11.3344 -11.2993 -11.2991  -6.8170  -6.8168  -6.7986  -6.7984
    -4.9697  -4.9696  -4.9433  -4.9432   1.0539   1.0541   1.3895   1.3897
     6.4443   6.4446   6.6499   6.6502

          k =-0.4018-0.9014-0.0024 (  2380 PWs)   bands (ev):

   -14.1947 -14.1947 -14.1507 -14.1507  -3.5329  -3.5328  -3.5069  -3.5069
    -2.2365  -2.2364  -1.8328  -1.8327  -1.2484  -1.2483  -1.2399  -1.2397
     9.1909   9.1909  10.2008  10.2008

          k =-0.3978-0.9019 0.7949 (  2384 PWs)   bands (ev):

   -13.1119 -13.1104 -13.0713 -13.0698  -5.1343  -5.1153  -5.1140  -5.0959
    -2.8463  -2.8306  -2.8247  -2.8092  -0.9710  -0.9633  -0.5909  -0.5829
     8.9529   8.9756   9.1654   9.1771

          k =-0.4097-0.9004-1.5968 (  2408 PWs)   bands (ev):

   -10.3711 -10.3492 -10.3360 -10.3164  -9.4333  -9.4083  -9.4073  -9.3804
    -2.5573  -2.5471  -2.5411  -2.5308   1.4409   1.4796   1.7347   1.7514
     5.2569   5.2776   5.6076   5.6558

     the Fermi energy is     3.0137 ev

!    total energy              =     -91.13171065 Ry
     Harris-Foulkes estimate   =     -91.13171065 Ry
     estimated scf accuracy    <          4.6E-09 Ry

     The total energy is the sum of the following terms:

     one-electron contribution =    -107.97966896 Ry
     hartree contribution      =      66.00534927 Ry
     xc contribution           =     -27.94613342 Ry
     ewald contribution        =     -21.21296341 Ry
     smearing contrib. (-TS)   =       0.00170587 Ry

     convergence has been achieved in   9 iterations

     Forces acting on atoms (cartesian axes, Ry/au):

     atom    1 type  1   force =    -0.00054617    0.00221803   -0.00380755
     atom    2 type  1   force =    -0.00059850   -0.00233644    0.00389367
     atom    3 type  1   force =    -0.00053731    0.00222839   -0.00384619
     atom    4 type  1   force =    -0.00059377   -0.00235230    0.00392797
     atom    5 type  1   force =     0.00038940   -0.00153127   -0.00397145
     atom    6 type  1   force =     0.00074605    0.00164686    0.00388609
     atom    7 type  1   force =     0.00074917    0.00168251    0.00383108
     atom    8 type  1   force =     0.00039113   -0.00155579   -0.00391361

     Total force =     0.012436     Total SCF correction =     0.000207


     Computing stress (Cartesian axis) and pressure

          total   stress  (Ry/bohr**3)                   (kbar)     P=        0.39
  -0.00000694   0.00000459  -0.00000190           -1.02        0.67       -0.28
   0.00000459   0.00000813  -0.00001747            0.67        1.20       -2.57
  -0.00000190  -0.00001747   0.00000681           -0.28       -2.57        1.00


     number of scf cycles    =   7
     number of bfgs steps    =   6

     enthalpy old            =     -91.1314047697 Ry
     enthalpy new            =     -91.1316654428 Ry

     CASE: enthalpy_new < enthalpy_old

     new trust radius        =       0.0353062378 bohr
     new conv_thr            =       0.0000000261 Ry

     new unit-cell volume =    669.58098 a.u.^3 (    99.22166 Ang^3 )
     density =      1.60662 g/cm^3

CELL_PARAMETERS (bohr)
  17.745880907   0.384153037  -0.091842318
   0.236324956   8.122568161   0.001211491
  -0.029956951  -0.001331590   4.648365426

ATOMIC_POSITIONS (crystal)
C             0.7253679054        0.8816439494        0.7789671995
C             0.7253297416        0.7184019134        0.2794930277
C             0.7253665069        0.3816441453        0.2789675247
C             0.7253284252        0.2184022502        0.7794939394
C             0.1390376881        0.4191612628        0.2501657993
C             0.1390204364        0.2562692526        0.7506903987
C             0.1390200898        0.7562688799        0.2506894367
C             0.1390372067        0.9191613463        0.7501656740



     Writing output data file ./pp.save/
     NEW-OLD atomic charge density approx. for the potential
     extrapolated charge   32.22094, renormalised to   32.00000

     total cpu time spent up to now is       70.0 secs

     Self-consistent Calculation

     iteration #  1     ecut=    40.00 Ry     beta= 0.50
     Davidson diagonalization with overlap
     ethr =  1.00E-06,  avg # of iterations =  5.6

     total cpu time spent up to now is       73.5 secs

     total energy              =     -91.12698594 Ry
     Harris-Foulkes estimate   =     -90.46574383 Ry
     estimated scf accuracy    <       0.00402891 Ry

     iteration #  2     ecut=    40.00 Ry     beta= 0.50
     Davidson diagonalization with overlap
     ethr =  1.26E-05,  avg # of iterations =  3.0

     total cpu time spent up to now is       75.7 secs

     total energy              =     -91.13149053 Ry
     Harris-Foulkes estimate   =     -91.13357814 Ry
     estimated scf accuracy    <       0.00590661 Ry

     iteration #  3     ecut=    40.00 Ry     beta= 0.50
     Davidson diagonalization with overlap
     ethr =  1.26E-05,  avg # of iterations =  2.1

     total cpu time spent up to now is       77.3 secs

     total energy              =     -91.13183831 Ry
     Harris-Foulkes estimate   =     -91.13200811 Ry
     estimated scf accuracy    <       0.00081372 Ry

     iteration #  4     ecut=    40.00 Ry     beta= 0.50
     Davidson diagonalization with overlap
     ethr =  2.54E-06,  avg # of iterations =  1.3

     total cpu time spent up to now is       78.6 secs

     total energy              =     -91.13174936 Ry
     Harris-Foulkes estimate   =     -91.13186061 Ry
     estimated scf accuracy    <       0.00038935 Ry

     iteration #  5     ecut=    40.00 Ry     beta= 0.50
     Davidson diagonalization with overlap
     ethr =  1.22E-06,  avg # of iterations =  1.6

     total cpu time spent up to now is       80.1 secs

     total energy              =     -91.13169561 Ry
     Harris-Foulkes estimate   =     -91.13177232 Ry
     estimated scf accuracy    <       0.00013046 Ry

     iteration #  6     ecut=    40.00 Ry     beta= 0.50
     Davidson diagonalization with overlap
     ethr =  4.08E-07,  avg # of iterations =  2.2

     total cpu time spent up to now is       81.9 secs

     total energy              =     -91.13173087 Ry
     Harris-Foulkes estimate   =     -91.13173535 Ry
     estimated scf accuracy    <       0.00001089 Ry

     iteration #  7     ecut=    40.00 Ry     beta= 0.50
     Davidson diagonalization with overlap
     ethr =  3.40E-08,  avg # of iterations =  2.0

     total cpu time spent up to now is       83.6 secs

     total energy              =     -91.13173158 Ry
     Harris-Foulkes estimate   =     -91.13173225 Ry
     estimated scf accuracy    <       0.00000100 Ry

     iteration #  8     ecut=    40.00 Ry     beta= 0.50
     Davidson diagonalization with overlap
     ethr =  3.12E-09,  avg # of iterations =  2.2

     total cpu time spent up to now is       85.5 secs

     total energy              =     -91.13173191 Ry
     Harris-Foulkes estimate   =     -91.13173202 Ry
     estimated scf accuracy    <       0.00000024 Ry

     iteration #  9     ecut=    40.00 Ry     beta= 0.50
     Davidson diagonalization with overlap
     ethr =  7.41E-10,  avg # of iterations =  2.0

     total cpu time spent up to now is       88.0 secs

     End of self-consistent calculation

          k = 0.0000 0.0000 0.0000 (  2381 PWs)   bands (ev):

   -15.6964 -15.6503 -10.6063 -10.5791  -9.3056  -9.2744  -4.0124  -3.5366
    -2.6037  -2.5967   0.5619   0.5775   0.9421   0.9736   1.1416   1.4047
     5.4598   5.8656   6.6623   9.7650

          k = 0.0041-0.0002 0.7972 (  2372 PWs)   bands (ev):

   -14.5900 -14.5475  -9.6611  -9.6370  -8.4897  -8.4583  -5.9431  -5.9268
    -2.6812  -2.5898  -2.5771  -2.2305  -1.1693  -1.1422   2.4953   2.7468
     4.7964   5.0719   8.1472  11.1095

          k =-0.0083 0.0005-1.5944 (  2382 PWs)   bands (ev):

   -11.3868 -11.3867 -11.3536 -11.3536  -6.8714  -6.8714  -6.8543  -6.8543
    -5.0239  -5.0239  -4.9998  -4.9998   0.9904   0.9904   1.3476   1.3477
     6.3865   6.3865   6.5969   6.5969

          k = 0.0198-0.9130-0.0001 (  2380 PWs)   bands (ev):

   -14.2470 -14.2470 -14.2054 -14.2054  -3.5895  -3.5895  -3.5657  -3.5657
    -2.3043  -2.3043  -1.8673  -1.8673  -1.3017  -1.3017  -1.2933  -1.2933
     8.6084   8.6084  10.8001  10.8001

          k = 0.0239-0.9132 0.7971 (  2388 PWs)   bands (ev):

   -13.1641 -13.1631 -13.1259 -13.1248  -5.1850  -5.1704  -5.1683  -5.1532
    -2.8993  -2.8852  -2.8830  -2.8693  -1.0353  -1.0308  -0.6283  -0.6212
     8.8985   8.9074   9.1134   9.1312

          k = 0.0115-0.9125-1.5945 (  2376 PWs)   bands (ev):

   -10.4205 -10.4063 -10.3901 -10.3736  -9.4832  -9.4621  -9.4579  -9.4386
    -2.6120  -2.6038  -2.5972  -2.5897   1.3952   1.4057   1.6782   1.7121
     5.1732   5.2123   5.5949   5.6107

          k =-0.4179 0.0122-0.0027 (  2400 PWs)   bands (ev):

   -15.6955 -15.6513 -10.6058 -10.5797  -9.3052  -9.2747  -3.9809  -3.5742
    -2.6037  -2.5969   0.5614   0.5769   0.9417   0.9732   1.1554   1.3884
     5.4941   5.8243   7.2370   8.2673

          k =-0.4138 0.0119 0.7945 (  2382 PWs)   bands (ev):

   -14.5892 -14.5483  -9.6607  -9.6374  -8.4895  -8.4587  -5.9428  -5.9270
    -2.6524  -2.5894  -2.5771  -2.2650  -1.1689  -1.1419   2.5080   2.7314
     4.8119   5.0542   8.7145   9.6734

          k =-0.4262 0.0126-1.5971 (  2388 PWs)   bands (ev):

   -11.3862 -11.3862 -11.3542 -11.3542  -6.8711  -6.8711  -6.8546  -6.8546
    -5.0236  -5.0236  -4.9999  -4.9999   1.0103   1.0103   1.3242   1.3242
     6.3963   6.3963   6.5854   6.5855

          k =-0.3981-0.9008-0.0028 (  2380 PWs)   bands (ev):

   -14.2463 -14.2463 -14.2062 -14.2062  -3.5894  -3.5894  -3.5660  -3.5659
    -2.2781  -2.2781  -1.8989  -1.8989  -1.3014  -1.3014  -1.2929  -1.2929
     9.1165   9.1166  10.0972  10.0973

          k =-0.3940-0.9010 0.7944 (  2384 PWs)   bands (ev):

   -13.1635 -13.1624 -13.1266 -13.1255  -5.1847  -5.1702  -5.1686  -5.1533
    -2.8993  -2.8852  -2.8830  -2.8693  -1.0125  -1.0068  -0.6557  -0.6499
     8.9104   8.9179   9.0968   9.1157

          k =-0.4064-0.9003-1.5972 (  2408 PWs)   bands (ev):

   -10.4201 -10.4058 -10.3906 -10.3740  -9.4827  -9.4616  -9.4583  -9.4390
    -2.6120  -2.6039  -2.5973  -2.5897   1.4098   1.4204   1.6612   1.6950
     5.2037   5.2433   5.5573   5.5729

     the Fermi energy is     2.9450 ev

!    total energy              =     -91.13173195 Ry
     Harris-Foulkes estimate   =     -91.13173195 Ry
     estimated scf accuracy    <          2.1E-09 Ry

     The total energy is the sum of the following terms:

     one-electron contribution =    -108.90464229 Ry
     hartree contribution      =      66.40143766 Ry
     xc contribution           =     -27.94310490 Ry
     ewald contribution        =     -20.68719081 Ry
     smearing contrib. (-TS)   =       0.00176839 Ry

     convergence has been achieved in   9 iterations

     Forces acting on atoms (cartesian axes, Ry/au):

     atom    1 type  1   force =    -0.00072871   -0.00179851    0.00297179
     atom    2 type  1   force =    -0.00024268    0.00172025   -0.00289511
     atom    3 type  1   force =    -0.00072388   -0.00179903    0.00297316
     atom    4 type  1   force =    -0.00023834    0.00171774   -0.00289858
     atom    5 type  1   force =     0.00046499    0.00174773    0.00290436
     atom    6 type  1   force =     0.00050034   -0.00167017   -0.00298084
     atom    7 type  1   force =     0.00050148   -0.00166505   -0.00297648
     atom    8 type  1   force =     0.00046680    0.00174702    0.00290170

     Total force =     0.009758     Total SCF correction =     0.000173


     Computing stress (Cartesian axis) and pressure

          total   stress  (Ry/bohr**3)                   (kbar)     P=       -0.80
  -0.00001568   0.00000262  -0.00000068           -2.31        0.39       -0.10
   0.00000262  -0.00000163   0.00001325            0.39       -0.24        1.95
  -0.00000068   0.00001325   0.00000101           -0.10        1.95        0.15


     number of scf cycles    =   8
     number of bfgs steps    =   7

     enthalpy old            =     -91.1316654428 Ry
     enthalpy new            =     -91.1316864336 Ry

     CASE: enthalpy_new < enthalpy_old

     new trust radius        =       0.0156781077 bohr
     new conv_thr            =       0.0000000100 Ry

     new unit-cell volume =    667.61981 a.u.^3 (    98.93105 Ang^3 )
     density =      1.61134 g/cm^3

CELL_PARAMETERS (bohr)
  17.692364680   0.377430741  -0.090467700
   0.232733197   8.122645878   0.002447186
  -0.029509733  -0.000609731   4.648635029

ATOMIC_POSITIONS (crystal)
C             0.7255963709        0.8816019717        0.7791954659
C             0.7255869509        0.7185553114        0.2792257638
C             0.7255951826        0.3816024314        0.2791944736
C             0.7255858176        0.2185550291        0.7792278518
C             0.1387917839        0.4191945350        0.2504306331
C             0.1387804091        0.2561243704        0.7504645397
C             0.1387801699        0.7561254078        0.2504617170
C             0.1387913151        0.9191939432        0.7504325550



     Writing output data file ./pp.save/
     NEW-OLD atomic charge density approx. for the potential
     extrapolated charge   31.90600, renormalised to   32.00000

     total cpu time spent up to now is       88.1 secs

     Self-consistent Calculation

     iteration #  1     ecut=    40.00 Ry     beta= 0.50
     Davidson diagonalization with overlap
     ethr =  1.00E-06,  avg # of iterations =  3.4

     total cpu time spent up to now is       91.0 secs

     total energy              =     -91.13101426 Ry
     Harris-Foulkes estimate   =     -91.41351814 Ry
     estimated scf accuracy    <       0.00058749 Ry

     iteration #  2     ecut=    40.00 Ry     beta= 0.50
     Davidson diagonalization with overlap
     ethr =  1.84E-06,  avg # of iterations =  3.1

     total cpu time spent up to now is       93.5 secs

     total energy              =     -91.13172906 Ry
     Harris-Foulkes estimate   =     -91.13205145 Ry
     estimated scf accuracy    <       0.00093297 Ry

     iteration #  3     ecut=    40.00 Ry     beta= 0.50
     Davidson diagonalization with overlap
     ethr =  1.84E-06,  avg # of iterations =  2.1

     total cpu time spent up to now is       95.4 secs

     total energy              =     -91.13177983 Ry
     Harris-Foulkes estimate   =     -91.13180783 Ry
     estimated scf accuracy    <       0.00013592 Ry

     iteration #  4     ecut=    40.00 Ry     beta= 0.50
     Davidson diagonalization with overlap
     ethr =  4.25E-07,  avg # of iterations =  1.0

     total cpu time spent up to now is       96.7 secs

     total energy              =     -91.13176662 Ry
     Harris-Foulkes estimate   =     -91.13178347 Ry
     estimated scf accuracy    <       0.00006574 Ry

     iteration #  5     ecut=    40.00 Ry     beta= 0.50
     Davidson diagonalization with overlap
     ethr =  2.05E-07,  avg # of iterations =  1.0

     total cpu time spent up to now is       98.1 secs

[...]
  -0.00000131  -0.00000608   0.00000154           -0.19       -0.89        0.23
   0.00000565   0.00000154  -0.00000020            0.83        0.23       -0.03


     number of scf cycles    =  48
     number of bfgs steps    =  47

     enthalpy old            =     -91.1364683592 Ry
     enthalpy new            =     -91.1364868436 Ry

     CASE: enthalpy_new < enthalpy_old

     new trust radius        =       0.0275979299 bohr
     new conv_thr            =       0.0000000100 Ry

     new unit-cell volume =    536.41809 a.u.^3 (    79.48896 Ang^3 )
     density =      2.00546 g/cm^3

CELL_PARAMETERS (bohr)
  14.931391020   2.434187464  -0.322636263
   1.508074127   7.984419548   0.007087559
  -0.139401040   0.021431438   4.645639617

ATOMIC_POSITIONS (crystal)
C             0.6849306527        0.8756820812        0.7841204663
C             0.6847140522        0.7128058639        0.2840151066
C             0.6839832154        0.3763749619        0.2836571366
C             0.6838971512        0.2133629594        0.7836093166
C             0.1800949344        0.4246752729        0.2459022410
C             0.1802105648        0.2614649344        0.7458595633
C             0.1798219515        0.7617640054        0.2456820887
C             0.1798554779        0.9248229208        0.7457870809



     Writing output data file ./pp.save/
     NEW-OLD atomic charge density approx. for the potential
     extrapolated charge   31.96568, renormalised to   32.00000

     total cpu time spent up to now is     2161.2 secs

     Self-consistent Calculation

     iteration #  1     ecut=    40.00 Ry     beta= 0.50
     Davidson diagonalization with overlap
     ethr =  1.00E-06,  avg # of iterations =  4.0

     total cpu time spent up to now is     2180.5 secs

     total energy              =     -91.13651383 Ry
     Harris-Foulkes estimate   =     -91.17227384 Ry
     estimated scf accuracy    <       0.00004044 Ry

     iteration #  2     ecut=    40.00 Ry     beta= 0.50
     Davidson diagonalization with overlap
     ethr =  1.26E-07,  avg # of iterations =  2.0

     total cpu time spent up to now is     2191.5 secs

     total energy              =     -91.13654769 Ry
     Harris-Foulkes estimate   =     -91.13655144 Ry
     estimated scf accuracy    <       0.00001669 Ry

     iteration #  3     ecut=    40.00 Ry     beta= 0.50
     Davidson diagonalization with overlap
     ethr =  5.22E-08,  avg # of iterations =  1.0

     total cpu time spent up to now is     2199.4 secs

     total energy              =     -91.13654754 Ry
     Harris-Foulkes estimate   =     -91.13654850 Ry
     estimated scf accuracy    <       0.00000468 Ry

     iteration #  4     ecut=    40.00 Ry     beta= 0.50
     Davidson diagonalization with overlap
     ethr =  1.46E-08,  avg # of iterations =  2.0

     total cpu time spent up to now is     2210.7 secs

     total energy              =     -91.13654826 Ry
     Harris-Foulkes estimate   =     -91.13654844 Ry
     estimated scf accuracy    <       0.00000058 Ry

     iteration #  5     ecut=    40.00 Ry     beta= 0.50
     Davidson diagonalization with overlap
     ethr =  1.80E-09,  avg # of iterations =  1.8

     total cpu time spent up to now is     2220.4 secs

     total energy              =     -91.13654829 Ry
     Harris-Foulkes estimate   =     -91.13654835 Ry
     estimated scf accuracy    <       0.00000013 Ry

     iteration #  6     ecut=    40.00 Ry     beta= 0.50
     Davidson diagonalization with overlap
     ethr =  3.97E-10,  avg # of iterations =  2.0

     total cpu time spent up to now is     2231.4 secs

     End of self-consistent calculation

          k = 0.0000 0.0000 0.0000 (  2381 PWs)   bands (ev):

   -13.7420 -13.6235  -8.6200  -8.5852  -7.3125  -7.2844  -2.3013  -1.2337
    -0.6157  -0.6020   2.5592   2.5633   2.9419   2.9485   3.1116   3.4011
     7.4492   7.8060   9.3466  13.2238

          k = 0.0179-0.0041 0.7982 (  2372 PWs)   bands (ev):

   -12.6321 -12.5236  -7.6743  -7.6432  -6.4892  -6.4736  -3.9612  -3.9276
    -0.9536  -0.5983  -0.5869   0.0496   0.8306   0.8402   4.4624   4.7410
     6.8627   6.9499  10.7807  13.8448

          k =-0.0358 0.0082-1.5964 (  2382 PWs)   bands (ev):

    -9.4191  -9.4185  -9.3380  -9.3373  -4.8837  -4.8830  -4.8617  -4.8610
    -3.0299  -3.0294  -3.0123  -3.0115   2.7879   2.7890   3.5338   3.5343
     8.3531   8.3545   8.5869   8.5897

          k = 0.1563-0.9577 0.0091 (  2380 PWs)   bands (ev):

   -12.2657 -12.2644 -12.2073 -12.2064  -1.6049  -1.6041  -1.5693  -1.5681
    -0.3726  -0.3695   0.1578   0.1600   0.6888   0.6915   0.6957   0.6982
    11.8962  11.9092  12.9095  12.9154

          k = 0.1742-0.9618 0.8073 (  2388 PWs)   bands (ev):

   -11.1853 -11.1757 -11.1330 -11.1213  -3.1914  -3.1812  -3.1756  -3.1606
    -0.9078  -0.9042  -0.8844  -0.8806   0.8567   0.9510   1.3442   1.4529
    10.8797  10.9633  11.0100  11.0990

          k = 0.1205-0.9495-1.5873 (  2376 PWs)   bands (ev):

    -8.4346  -8.4179  -8.3943  -8.3729  -7.4937  -7.4800  -7.4623  -7.4456
    -0.6206  -0.6163  -0.6056  -0.6002   3.2690   3.4239   3.6300   3.8005
     7.0635   7.2516   7.4726   7.6942

          k =-0.5125 0.0968-0.0158 (  2400 PWs)   bands (ev):

   -13.6882 -13.6790  -8.6154  -8.5911  -7.3076  -7.2871  -1.8323  -1.7789
    -0.6093  -0.6087   2.5590   2.5623   2.9439   2.9464   3.1395   3.3360
     7.5494   7.8180  11.1574  11.2776

          k =-0.4945 0.0927 0.7824 (  2382 PWs)   bands (ev):

   -12.5867 -12.5703  -7.6703  -7.6483  -6.4898  -6.4714  -3.9520  -3.9368
    -0.5970  -0.5882  -0.5546  -0.4161   0.8324   0.8391   4.4847   4.6747
     6.8557   7.0308  12.2958  12.8213

          k =-0.5483 0.1050-1.6122 (  2388 PWs)   bands (ev):

    -9.3904  -9.3896  -9.3678  -9.3669  -4.8810  -4.8803  -4.8647  -4.8642
    -3.0271  -3.0268  -3.0145  -3.0134   3.0398   3.0409   3.2474   3.2491
     8.3841   8.3853   8.5501   8.5528

          k =-0.3561-0.8609-0.0067 (  2380 PWs)   bands (ev):

   -12.2816 -12.2797 -12.1921 -12.1894  -1.5917  -1.5899  -1.5845  -1.5812
    -0.5066  -0.5048   0.3176   0.3234   0.6877   0.6898   0.6983   0.7004
    11.4312  11.4452  12.9756  12.9806

          k =-0.3382-0.8650 0.7915 (  2384 PWs)   bands (ev):

   -11.1984 -11.1906 -11.1160 -11.1095  -3.1990  -3.1878  -3.1643  -3.1573
    -0.8982  -0.8964  -0.8946  -0.8884   0.7542   0.8109   1.5069   1.5752
    10.7986  10.8886  11.1007  11.1973

          k =-0.3920-0.8527-1.6031 (  2408 PWs)   bands (ev):

    -8.4166  -8.4066  -8.4030  -8.3975  -7.4772  -7.4703  -7.4677  -7.4620
    -0.6144  -0.6122  -0.6099  -0.6057   3.4236   3.5048   3.5226   3.5853
     7.3179   7.3904   7.4063   7.5341

     the Fermi energy is     4.9171 ev

!    total energy              =     -91.13654831 Ry
     Harris-Foulkes estimate   =     -91.13654831 Ry
     estimated scf accuracy    <          5.6E-09 Ry

     The total energy is the sum of the following terms:

     one-electron contribution =     -41.14249394 Ry
     hartree contribution      =      34.86426610 Ry
     xc contribution           =     -27.95025352 Ry
     ewald contribution        =     -56.90986910 Ry
     smearing contrib. (-TS)   =       0.00180215 Ry

     convergence has been achieved in   6 iterations

     Forces acting on atoms (cartesian axes, Ry/au):

     atom    1 type  1   force =    -0.00222839    0.00224818   -0.00045493
     atom    2 type  1   force =    -0.00018530   -0.00072366   -0.00018459
     atom    3 type  1   force =     0.00024667    0.00062572    0.00024120
     atom    4 type  1   force =     0.00184458   -0.00156009    0.00018961
     atom    5 type  1   force =    -0.00029659    0.00028913   -0.00012655
     atom    6 type  1   force =    -0.00034642   -0.00014895    0.00005316
     atom    7 type  1   force =     0.00071911   -0.00101472    0.00040074
     atom    8 type  1   force =     0.00024633    0.00028437   -0.00011864

     Total force =     0.004404     Total SCF correction =     0.000177


     Computing stress (Cartesian axis) and pressure

          total   stress  (Ry/bohr**3)                   (kbar)     P=       -0.17
   0.00000232  -0.00000136   0.00000504            0.34       -0.20        0.74
  -0.00000136  -0.00000469   0.00000059           -0.20       -0.69        0.09
   0.00000504   0.00000059  -0.00000107            0.74        0.09       -0.16


     number of scf cycles    =  49
     number of bfgs steps    =  48

     enthalpy old            =     -91.1364868436 Ry
     enthalpy new            =     -91.1365118414 Ry

     CASE: enthalpy_new < enthalpy_old

     new trust radius        =       0.0414242410 bohr
     new conv_thr            =       0.0000000100 Ry

     new unit-cell volume =    535.76124 a.u.^3 (    79.39162 Ang^3 )
     density =      2.00792 g/cm^3

CELL_PARAMETERS (bohr)
  14.924661943   2.468542425  -0.204218883
   1.527261876   7.980455387  -0.003831351
  -0.103099636   0.021625698   4.646738029

ATOMIC_POSITIONS (crystal)
C             0.6847771056        0.8763800873        0.7832938783
C             0.6845409112        0.7135226318        0.2832192775
C             0.6834965950        0.3773169755        0.2827153543
C             0.6834218287        0.2143032392        0.7826944307
C             0.1804670890        0.4238098728        0.2467973616
C             0.1805958244        0.2605980206        0.7467424652
C             0.1800765392        0.7609929964        0.2465285055
C             0.1801321070        0.9240291764        0.7466417270



     Writing output data file ./pp.save/
     NEW-OLD atomic charge density approx. for the potential
     extrapolated charge   31.96077, renormalised to   32.00000

     total cpu time spent up to now is     2231.9 secs

     Self-consistent Calculation

     iteration #  1     ecut=    40.00 Ry     beta= 0.50
     Davidson diagonalization with overlap
     ethr =  1.00E-06,  avg # of iterations =  4.5

     total cpu time spent up to now is     2253.5 secs

     total energy              =     -91.13652572 Ry
     Harris-Foulkes estimate   =     -91.17717202 Ry
     estimated scf accuracy    <       0.00009540 Ry

     iteration #  2     ecut=    40.00 Ry     beta= 0.50
     Davidson diagonalization with overlap
     ethr =  2.98E-07,  avg # of iterations =  2.0

     total cpu time spent up to now is     2264.8 secs

     total energy              =     -91.13657647 Ry
     Harris-Foulkes estimate   =     -91.13658360 Ry
     estimated scf accuracy    <       0.00003183 Ry

     iteration #  3     ecut=    40.00 Ry     beta= 0.50
     Davidson diagonalization with overlap
     ethr =  9.95E-08,  avg # of iterations =  2.0

     total cpu time spent up to now is     2275.7 secs

     total energy              =     -91.13657866 Ry
     Harris-Foulkes estimate   =     -91.13657901 Ry
     estimated scf accuracy    <       0.00000703 Ry

     iteration #  4     ecut=    40.00 Ry     beta= 0.50
     Davidson diagonalization with overlap
     ethr =  2.20E-08,  avg # of iterations =  2.0

     total cpu time spent up to now is     2287.5 secs

     total energy              =     -91.13657952 Ry
     Harris-Foulkes estimate   =     -91.13657965 Ry
     estimated scf accuracy    <       0.00000059 Ry

     iteration #  5     ecut=    40.00 Ry     beta= 0.50
     Davidson diagonalization with overlap
     ethr =  1.83E-09,  avg # of iterations =  2.1

     total cpu time spent up to now is     2298.6 secs

     total energy              =     -91.13657957 Ry
     Harris-Foulkes estimate   =     -91.13657962 Ry
     estimated scf accuracy    <       0.00000012 Ry

     iteration #  6     ecut=    40.00 Ry     beta= 0.50
     Davidson diagonalization with overlap
     ethr =  3.71E-10,  avg # of iterations =  2.0

     total cpu time spent up to now is     2310.2 secs

     total energy              =     -91.13657958 Ry
     Harris-Foulkes estimate   =     -91.13657959 Ry
     estimated scf accuracy    <       0.00000002 Ry

     iteration #  7     ecut=    40.00 Ry     beta= 0.50
     Davidson diagonalization with overlap
     ethr =  6.18E-11,  avg # of iterations =  2.0

     total cpu time spent up to now is     2320.9 secs

     End of self-consistent calculation

          k = 0.0000 0.0000 0.0000 (  2381 PWs)   bands (ev):

   -13.7303 -13.6107  -8.6081  -8.5712  -7.3009  -7.2712  -2.2924  -1.2176
    -0.6050  -0.5899   2.5709   2.5752   2.9522   2.9599   3.1190   3.4235
     7.4523   7.8287   9.3648  13.2281

          k = 0.0112-0.0018 0.7977 (  2372 PWs)   bands (ev):

   -12.6206 -12.5106  -7.6624  -7.6294  -6.4774  -6.4611  -3.9502  -3.9148
    -0.9464  -0.5865  -0.5743   0.0678   0.8428   0.8529   4.4669   4.7624
     6.8769   6.9584  10.7913  13.8524

          k =-0.0224 0.0035-1.5954 (  2382 PWs)   bands (ev):

    -9.4083  -9.4076  -9.3249  -9.3242  -4.8718  -4.8711  -4.8484  -4.8477
    -3.0182  -3.0175  -2.9995  -2.9984   2.7917   2.7930   3.5551   3.5557
     8.3578   8.3594   8.6067   8.6104

          k = 0.1587-0.9590 0.0080 (  2380 PWs)   bands (ev):

   -12.2532 -12.2515 -12.1953 -12.1943  -1.5925  -1.5914  -1.5565  -1.5549
    -0.3571  -0.3530   0.1656   0.1685   0.7001   0.7027   0.7077   0.7100
    11.9306  11.9485  12.9221  12.9306

          k = 0.1699-0.9608 0.8057 (  2388 PWs)   bands (ev):

   -11.1716 -11.1644 -11.1191 -11.1110  -3.1783  -3.1709  -3.1616  -3.1504
    -0.8948  -0.8922  -0.8710  -0.8679   0.8848   0.9518   1.3697   1.4459
    10.9069  10.9906  11.0061  11.0943

          k = 0.1363-0.9555-1.5874 (  2376 PWs)   bands (ev):

    -8.4211  -8.4079  -8.3786  -8.3641  -7.4795  -7.4701  -7.4478  -7.4352
    -0.6073  -0.6048  -0.5917  -0.5878   3.3009   3.4131   3.6671   3.7886
     7.1007   7.2363   7.5146   7.6746

          k =-0.5130 0.0982-0.0118 (  2400 PWs)   bands (ev):

   -13.6754 -13.6673  -8.6021  -8.5786  -7.2948  -7.2751  -1.8164  -1.7707
    -0.5976  -0.5975   2.5709   2.5740   2.9561   2.9566   3.1579   3.3461
     7.5666   7.8240  11.1908  11.2939

          k =-0.5017 0.0964 0.7859 (  2382 PWs)   bands (ev):

   -12.5725 -12.5602  -7.6571  -7.6359  -6.4769  -6.4598  -3.9380  -3.9272
    -0.5846  -0.5762  -0.5236  -0.4238   0.8450   0.8514   4.5007   4.6832
     6.8821   7.0283  12.3952  12.7638

          k =-0.5354 0.1017-1.6072 (  2388 PWs)   bands (ev):

    -9.3754  -9.3743  -9.3592  -9.3579  -4.8680  -4.8673  -4.8525  -4.8519
    -3.0145  -3.0142  -3.0026  -3.0011   3.0812   3.0828   3.2278   3.2299
     8.3997   8.4014   8.5580   8.5610

          k =-0.3542-0.8609-0.0039 (  2380 PWs)   bands (ev):

   -12.2703 -12.2677 -12.1794 -12.1757  -1.5785  -1.5764  -1.5727  -1.5685
    -0.5001  -0.4977   0.3359   0.3436   0.6985   0.7011   0.7101   0.7128
    11.4364  11.4549  12.9904  12.9972

          k =-0.3430-0.8626 0.7938 (  2384 PWs)   bands (ev):

   -11.1859 -11.1803 -11.1023 -11.0967  -3.1866  -3.1782  -3.1507  -3.1452
    -0.8853  -0.8834  -0.8813  -0.8766   0.7689   0.8073   1.5373   1.5849
    10.8175  10.8807  11.1342  11.2012

          k =-0.3766-0.8573-1.5992 (  2408 PWs)   bands (ev):

    -8.4034  -8.3951  -8.3924  -8.3850  -7.4648  -7.4573  -7.4557  -7.4501
    -0.6010  -0.5993  -0.5971  -0.5936   3.4409   3.5176   3.5274   3.5940
     7.3344   7.4143   7.4207   7.5374

     the Fermi energy is     4.9347 ev

!    total energy              =     -91.13657958 Ry
     Harris-Foulkes estimate   =     -91.13657959 Ry
     estimated scf accuracy    <          1.7E-09 Ry

     The total energy is the sum of the following terms:

     one-electron contribution =     -40.91171007 Ry
     hartree contribution      =      34.76300476 Ry
     xc contribution           =     -27.95025622 Ry
     ewald contribution        =     -57.03941415 Ry
     smearing contrib. (-TS)   =       0.00179611 Ry

     convergence has been achieved in   7 iterations

     Forces acting on atoms (cartesian axes, Ry/au):

     atom    1 type  1   force =    -0.00269096    0.00248478   -0.00051996
     atom    2 type  1   force =    -0.00050757   -0.00051443   -0.00029830
     atom    3 type  1   force =     0.00066133    0.00041585    0.00037631
     atom    4 type  1   force =     0.00226116   -0.00177672    0.00027963
     atom    5 type  1   force =    -0.00044837    0.00037209   -0.00030970
     atom    6 type  1   force =    -0.00050538   -0.00008552    0.00014588
     atom    7 type  1   force =     0.00092554   -0.00112700    0.00055912
     atom    8 type  1   force =     0.00030424    0.00023094   -0.00023299

     Total force =     0.005173     Total SCF correction =     0.000050


     Computing stress (Cartesian axis) and pressure

          total   stress  (Ry/bohr**3)                   (kbar)     P=       -0.19
   0.00000152  -0.00000113   0.00000378            0.22       -0.17        0.56
  -0.00000113  -0.00000239  -0.00000102           -0.17       -0.35       -0.15
   0.00000378  -0.00000102  -0.00000305            0.56       -0.15       -0.45


     number of scf cycles    =  50
     number of bfgs steps    =  49

     enthalpy old            =     -91.1365118414 Ry
     enthalpy new            =     -91.1365431639 Ry

     CASE: enthalpy_new < enthalpy_old

     new trust radius        =       0.0621893607 bohr
     new conv_thr            =       0.0000000100 Ry

     new unit-cell volume =    534.69705 a.u.^3 (    79.23393 Ang^3 )
     density =      2.01191 g/cm^3

CELL_PARAMETERS (bohr)
  14.909338485   2.506163125  -0.026778492
   1.548010979   7.976158949  -0.020500282
  -0.048560399   0.021544286   4.647954591

ATOMIC_POSITIONS (crystal)
C             0.6847150981        0.8775378782        0.7819598079
C             0.6845149363        0.7146612801        0.2819730119
C             0.6831092859        0.3787407007        0.2813368201
C             0.6830847898        0.2156789056        0.7813941334
C             0.1807198544        0.4225001869        0.2481253734
C             0.1808624278        0.2592697072        0.7480611433
C             0.1802217311        0.7597697694        0.2478368501
C             0.1802798765        0.9227945720        0.7479458598



     Writing output data file ./pp.save/
     NEW-OLD atomic charge density approx. for the potential
     extrapolated charge   31.93631, renormalised to   32.00000

     total cpu time spent up to now is     2321.4 secs

     Self-consistent Calculation

     iteration #  1     ecut=    40.00 Ry     beta= 0.50
     Davidson diagonalization with overlap
     ethr =  1.00E-06,  avg # of iterations =  4.8

     total cpu time spent up to now is     2345.3 secs

     total energy              =     -91.13649153 Ry
     Harris-Foulkes estimate   =     -91.20183613 Ry
     estimated scf accuracy    <       0.00017116 Ry

     iteration #  2     ecut=    40.00 Ry     beta= 0.50
     Davidson diagonalization with overlap
     ethr =  5.35E-07,  avg # of iterations =  2.0

     total cpu time spent up to now is     2357.3 secs

     total energy              =     -91.13660524 Ry
     Harris-Foulkes estimate   =     -91.13661751 Ry
     estimated scf accuracy    <       0.00006358 Ry

     iteration #  3     ecut=    40.00 Ry     beta= 0.50
     Davidson diagonalization with overlap
     ethr =  1.99E-07,  avg # of iterations =  1.0

     total cpu time spent up to now is     2365.6 secs

     total energy              =     -91.13660646 Ry
     Harris-Foulkes estimate   =     -91.13660813 Ry
     estimated scf accuracy    <       0.00001650 Ry

     iteration #  4     ecut=    40.00 Ry     beta= 0.50
     Davidson diagonalization with overlap
     ethr =  5.16E-08,  avg # of iterations =  2.0

     total cpu time spent up to now is     2377.7 secs

     total energy              =     -91.13660885 Ry
     Harris-Foulkes estimate   =     -91.13660924 Ry
     estimated scf accuracy    <       0.00000116 Ry

     iteration #  5     ecut=    40.00 Ry     beta= 0.50
     Davidson diagonalization with overlap
