
     Program PWSCF v.6.5 starts on  7Jul2022 at 17:20:37 

     This program is part of the open-source Quantum ESPRESSO suite
     for quantum simulation of materials; please cite
         "P. Giannozzi et al., J. Phys.:Condens. Matter 21 395502 (2009);
         "P. Giannozzi et al., J. Phys.:Condens. Matter 29 465901 (2017);
          URL http://www.quantum-espresso.org", 
     in publications or presentations arising from this work. More details at
     http://www.quantum-espresso.org/quote

     Parallel version (MPI), running on    96 processors

     MPI processes distributed on     2 nodes
     R & G space division:  proc/nbgrp/npool/nimage =      96
     Waiting for input...
     Reading input from standard input
     Message from routine read_cards :
     DEPRECATED: no units specified in CELL_PARAMETERS card

     Current dimensions of program PWSCF are:
     Max number of different atomic species (ntypx) = 10
     Max number of k-points (npk) =  40000
     Max angular momentum in pseudopotentials (lmaxx) =  3

     Subspace diagonalization in iterative solution of the eigenvalue problem:
     one sub-group per band group will be used
     scalapack distributed-memory algorithm (size of sub-group:  9*  9 procs)

 
     Parallelization info
     --------------------
     sticks:   dense  smooth     PW     G-vecs:    dense   smooth      PW
     Min          19      19      5                  247      247      41
     Max          20      20      6                  248      248      45
     Sum        1849    1849    573                23771    23771    4135
 


     bravais-lattice index     =            0
     lattice parameter (alat)  =      17.9291  a.u.
     unit-cell volume          =     695.1256 (a.u.)^3
     number of atoms/cell      =            8
     number of atomic types    =            1
     number of electrons       =        32.00
     number of Kohn-Sham states=           20
     kinetic-energy cutoff     =      40.0000  Ry
     charge density cutoff     =     160.0000  Ry
     convergence threshold     =      1.0E-08
     mixing beta               =       0.5000
     number of iterations used =            8  plain     mixing
     Exchange-correlation=  SLA  PW   PBE  PBE
                           (   1   4   3   4   0   0   0)
     nstep                     =          250


     celldm(1)=  17.929119  celldm(2)=   0.000000  celldm(3)=   0.000000
     celldm(4)=   0.000000  celldm(5)=   0.000000  celldm(6)=   0.000000

     crystal axes: (cart. coord. in units of alat)
               a(1) = (   0.999921  -0.003921  -0.011953 )  
               a(2) = (   0.002449   0.449821   0.000089 )  
               a(3) = (  -0.003625  -0.000045   0.268189 )  

     reciprocal axes: (cart. coord. in units 2 pi/alat)
               b(1) = (  1.000219 -0.005447  0.013520 )  
               b(2) = (  0.008723  2.223057  0.000488 )  
               b(3) = (  0.044575 -0.000982  3.729310 )  


     PseudoPot. # 1 for C  read from file:
     ./C.pbe-van_bm.upf
     MD5 check sum: 1a69bf6b8db32088f5b2163dbdb77a27
     Pseudo is Ultrasoft, Zval =  4.0
     Generated by new atomic code, or converted to UPF format
     Using radial grid of  721 points,  4 beta functions with: 
                l(1) =   0
                l(2) =   0
                l(3) =   1
                l(4) =   1
     Q(r) pseudized with  8 coefficients,  rinner =    0.800   0.800   0.800


     atomic species   valence    mass     pseudopotential
        C              4.00    12.00000     C ( 1.00)

     No symmetry found



   Cartesian axes

     site n.     atom                  positions (alat units)
         1           C   tau(   1) = (   0.5788543   0.3526056   0.1089079  )
         2           C   tau(   2) = (  -0.0143321   0.2923332   0.1629192  )
         3           C   tau(   3) = (   1.1689213   0.0633047   0.1567332  )
         4           C   tau(   4) = (   0.5778891   0.1998387   0.1088496  )
         5           C   tau(   5) = (   0.5774762   0.4247255   0.2430209  )
         6           C   tau(   6) = (  -0.0158111   0.2925598   0.2969035  )
         7           C   tau(   7) = (   1.1703548   0.0631764   0.0227516  )
         8           C   tau(   8) = (   0.5793511   0.1277172  -0.0252553  )

     number of k points=    14  Marzari-Vanderbilt smearing, width (Ry)=  0.0200
                       cart. coord. in units 2pi/alat
        k(    1) = (   0.0000000   0.0000000   0.0000000), wk =   0.0833333
        k(    2) = (   0.0111437  -0.0002456   0.9323276), wk =   0.1666667
        k(    3) = (  -0.0222874   0.0004912  -1.8646551), wk =   0.0833333
        k(    4) = (   0.0029077   0.7410191   0.0001626), wk =   0.1666667
        k(    5) = (   0.0140514   0.7407735   0.9324901), wk =   0.1666667
        k(    6) = (  -0.0193797   0.7415104  -1.8644925), wk =   0.1666667
        k(    7) = (  -0.0082360   0.7412647  -0.9321650), wk =   0.1666667
        k(    8) = (  -0.5001097   0.0027236  -0.0067600), wk =   0.0833333
        k(    9) = (  -0.4889660   0.0024780   0.9255675), wk =   0.1666667
        k(   10) = (  -0.5223970   0.0032149  -1.8714151), wk =   0.0833333
        k(   11) = (  -0.4972020   0.7437427  -0.0065974), wk =   0.1666667
        k(   12) = (  -0.4860583   0.7434971   0.9257301), wk =   0.1666667
        k(   13) = (  -0.5194893   0.7442340  -1.8712525), wk =   0.1666667
        k(   14) = (  -0.5083457   0.7439883  -0.9389250), wk =   0.1666667

     Dense  grid:    23771 G-vectors     FFT dimensions: (  75,  36,  20)

     Estimated max dynamical RAM per process >       1.95 MB

     Estimated total dynamical RAM >     187.21 MB

     Initial potential from superposition of free atoms

     starting charge   31.99968, renormalised to   32.00000
     Starting wfcs are   32 randomized atomic wfcs

     total cpu time spent up to now is        1.8 secs

     Self-consistent Calculation

     iteration #  1     ecut=    40.00 Ry     beta= 0.50
     Davidson diagonalization with overlap
     ethr =  1.00E-02,  avg # of iterations =  2.1

     total cpu time spent up to now is        2.6 secs

     total energy              =     -90.75336957 Ry
     Harris-Foulkes estimate   =     -91.18149480 Ry
     estimated scf accuracy    <       0.83928307 Ry

     iteration #  2     ecut=    40.00 Ry     beta= 0.50
     Davidson diagonalization with overlap
     ethr =  2.62E-03,  avg # of iterations =  2.3

     total cpu time spent up to now is        3.3 secs

     total energy              =     -90.79808925 Ry
     Harris-Foulkes estimate   =     -90.82880841 Ry
     estimated scf accuracy    <       0.06485315 Ry

     iteration #  3     ecut=    40.00 Ry     beta= 0.50
     Davidson diagonalization with overlap
     ethr =  2.03E-04,  avg # of iterations =  2.4

     total cpu time spent up to now is        4.1 secs

     total energy              =     -90.80861524 Ry
     Harris-Foulkes estimate   =     -90.80906785 Ry
     estimated scf accuracy    <       0.00268825 Ry

     iteration #  4     ecut=    40.00 Ry     beta= 0.50
     Davidson diagonalization with overlap
     ethr =  8.40E-06,  avg # of iterations =  6.0

     total cpu time spent up to now is        5.3 secs

     total energy              =     -90.80863710 Ry
     Harris-Foulkes estimate   =     -90.80888082 Ry
     estimated scf accuracy    <       0.00075115 Ry

     iteration #  5     ecut=    40.00 Ry     beta= 0.50
     Davidson diagonalization with overlap
     ethr =  2.35E-06,  avg # of iterations =  4.2

     total cpu time spent up to now is        6.3 secs

     total energy              =     -90.80859011 Ry
     Harris-Foulkes estimate   =     -90.80914651 Ry
     estimated scf accuracy    <       0.00376428 Ry

     iteration #  6     ecut=    40.00 Ry     beta= 0.50
     Davidson diagonalization with overlap
     ethr =  2.35E-06,  avg # of iterations =  3.4

     total cpu time spent up to now is        7.1 secs

     total energy              =     -90.80881785 Ry
     Harris-Foulkes estimate   =     -90.80887006 Ry
     estimated scf accuracy    <       0.00012163 Ry

     iteration #  7     ecut=    40.00 Ry     beta= 0.50
     Davidson diagonalization with overlap
     ethr =  3.80E-07,  avg # of iterations =  2.0

     total cpu time spent up to now is        7.8 secs

     total energy              =     -90.80884542 Ry
     Harris-Foulkes estimate   =     -90.80885213 Ry
     estimated scf accuracy    <       0.00002170 Ry

     iteration #  8     ecut=    40.00 Ry     beta= 0.50
     Davidson diagonalization with overlap
     ethr =  6.78E-08,  avg # of iterations =  1.3

     total cpu time spent up to now is        8.3 secs

     total energy              =     -90.80884919 Ry
     Harris-Foulkes estimate   =     -90.80884922 Ry
     estimated scf accuracy    <       0.00000025 Ry

     iteration #  9     ecut=    40.00 Ry     beta= 0.50
     Davidson diagonalization with overlap
     ethr =  7.68E-10,  avg # of iterations =  3.3

     total cpu time spent up to now is        9.3 secs

     total energy              =     -90.80884942 Ry
     Harris-Foulkes estimate   =     -90.80884945 Ry
     estimated scf accuracy    <       0.00000012 Ry

     iteration # 10     ecut=    40.00 Ry     beta= 0.50
     Davidson diagonalization with overlap
     ethr =  3.90E-10,  avg # of iterations =  1.1

     total cpu time spent up to now is        9.8 secs

     End of self-consistent calculation

          k = 0.0000 0.0000 0.0000 (  2977 PWs)   bands (ev):

   -15.9363 -14.1359 -13.0262 -10.6595  -9.5946  -6.4092  -6.2203  -4.1013
    -3.5588  -3.4807  -3.1152  -2.0361  -1.4011  -0.2512   0.5894   1.0704
     5.1431   7.0379   9.1949   9.3241

          k = 0.0111-0.0002 0.9323 (  2961 PWs)   bands (ev):

   -14.9041 -13.2865 -12.2645  -9.7732  -8.9958  -7.9918  -7.5834  -6.5129
    -3.1651  -2.8742  -2.1050  -1.7510  -1.6291  -0.6905  -0.0477   2.3224
     4.2099   8.2885   8.3625   8.5587

          k =-0.0223 0.0005-1.8647 (  2954 PWs)   bands (ev):

   -11.9287 -11.9282 -10.9581 -10.9576 -10.1902 -10.1896  -7.1611  -7.1604
    -5.3873  -5.3871   0.5108   0.5115   1.9594   1.9652   2.2735   2.2837
     3.2740   3.2849   3.9333   3.9421

          k = 0.0029 0.7410 0.0002 (  2957 PWs)   bands (ev):

   -15.2765 -13.8605 -13.3388 -13.2939  -6.3610  -6.2663  -5.9779  -3.8593
    -3.5006  -3.2616  -2.9317  -1.6767  -1.5045  -1.3848  -1.3491  -1.1108
     8.0520   8.1981   9.2410   9.7146

          k = 0.0141 0.7408 0.9325 (  2972 PWs)   bands (ev):

   -14.2533 -13.0316 -12.5191 -12.3485  -7.8871  -7.6828  -6.8010  -4.8650
    -4.7415  -2.4970  -2.1357  -2.0500  -1.8139  -0.1654  -0.0373  -0.0027
     6.6990   8.0830   8.2401   9.3688

          k =-0.0194 0.7415-1.8645 (  2989 PWs)   bands (ev):

   -11.3778 -11.3772 -10.7642 -10.7636 -10.3788 -10.3782  -9.1669  -9.1664
    -3.3183  -3.3175   0.7870   0.7883   1.6567   1.6651   1.9083   1.9222
     3.7719   3.7817   3.9290   3.9418

          k =-0.0082 0.7413-0.9322 (  2971 PWs)   bands (ev):

   -14.2534 -13.0317 -12.5191 -12.3482  -7.8870  -7.6828  -6.8011  -4.8653
    -4.7416  -2.4972  -2.1350  -2.0508  -1.8134  -0.1647  -0.0381  -0.0022
     6.6989   8.0828   8.2400   9.4800

          k =-0.5001 0.0027-0.0068 (  2958 PWs)   bands (ev):

   -15.9362 -14.1365 -13.0254 -10.6595  -9.5945  -6.4089  -6.2203  -4.1273
    -3.5583  -3.4810  -3.0450  -2.0877  -1.3985  -0.2515   0.5897   1.0675
     5.1367   7.6584   8.1643   9.3241

          k =-0.4890 0.0025 0.9256 (  2966 PWs)   bands (ev):

   -14.9040 -13.2870 -12.2640  -9.7732  -8.9957  -7.9916  -7.5834  -6.5130
    -3.1651  -2.8928  -2.1056  -1.6936  -1.6293  -0.7369  -0.0451   2.3192
     4.2083   8.3610   8.5592   8.9737

          k =-0.5224 0.0032-1.8714 (  2970 PWs)   bands (ev):

   -11.9286 -11.9282 -10.9585 -10.9580 -10.1899 -10.1893  -7.1611  -7.1605
    -5.3873  -5.3871   0.5064   0.5067   1.9590   1.9648   2.2993   2.3103
     3.2449   3.2558   3.9354   3.9441

          k =-0.4972 0.7437-0.0066 (  2964 PWs)   bands (ev):

   -15.2765 -13.8614 -13.3304 -13.3015  -6.3610  -6.2662  -5.9781  -3.8121
    -3.5642  -3.2464  -2.9318  -1.6769  -1.5836  -1.3545  -1.3489  -1.0569
     8.1505   8.2516   9.2781   9.7077

          k =-0.4861 0.7435 0.9257 (  2978 PWs)   bands (ev):

   -14.2532 -13.0323 -12.5173 -12.3497  -7.8871  -7.6829  -6.8010  -4.8650
    -4.7415  -2.4348  -2.2502  -1.9977  -1.8137  -0.2793  -0.0096   0.0869
     6.7000   8.0782   8.2459   9.4500

          k =-0.5195 0.7442-1.8713 (  2999 PWs)   bands (ev):

   -11.3777 -11.3771 -10.7646 -10.7641 -10.3785 -10.3779  -9.1669  -9.1665
    -3.3183  -3.3176   0.7947   0.7958   1.6407   1.6487   1.9148   1.9286
     3.7579   3.7676   3.9348   3.9478

          k =-0.5083 0.7440-0.9389 (  2979 PWs)   bands (ev):

   -14.2533 -13.0324 -12.5173 -12.3494  -7.8871  -7.6830  -6.8012  -4.8653
    -4.7416  -2.4345  -2.2509  -1.9974  -1.8131  -0.2794  -0.0096   0.0872
     6.6998   8.0781   8.2457   9.4492

     the Fermi energy is     2.5327 ev

!    total energy              =     -90.80884944 Ry
     Harris-Foulkes estimate   =     -90.80884944 Ry
     estimated scf accuracy    <          5.3E-09 Ry

     The total energy is the sum of the following terms:

     one-electron contribution =     -67.70588415 Ry
     hartree contribution      =      45.17107161 Ry
     xc contribution           =     -27.55871061 Ry
     ewald contribution        =     -40.71727703 Ry
     smearing contrib. (-TS)   =       0.00195074 Ry

     convergence has been achieved in  10 iterations

     Forces acting on atoms (cartesian axes, Ry/au):

     atom    1 type  1   force =    -0.00041238   -0.01907859   -0.00004841
     atom    2 type  1   force =     0.00062116    0.00030902   -0.00015044
     atom    3 type  1   force =    -0.00064558   -0.00018961    0.00030865
     atom    4 type  1   force =     0.00041663    0.01904619    0.00014082
     atom    5 type  1   force =    -0.00021664    0.01906059   -0.00010970
     atom    6 type  1   force =     0.00029831    0.00014930   -0.00016750
     atom    7 type  1   force =    -0.00028091   -0.00022972    0.00001753
     atom    8 type  1   force =     0.00021942   -0.01906718    0.00000905

     Total force =     0.038150     Total SCF correction =     0.000107


     Computing stress (Cartesian axis) and pressure

          total   stress  (Ry/bohr**3)                   (kbar)     P=       -7.74
  -0.00003201  -0.00000281  -0.00000085           -4.71       -0.41       -0.13
  -0.00000281  -0.00015055   0.00000033           -0.41      -22.15        0.05
  -0.00000085   0.00000033   0.00002469           -0.13        0.05        3.63


     BFGS Geometry Optimization

     number of scf cycles    =   1
     number of bfgs steps    =   0

     enthalpy new            =     -90.8088021819 Ry

     new trust radius        =       0.0198593404 bohr
     new conv_thr            =       0.0000000100 Ry

     new unit-cell volume =    692.37865 a.u.^3 (   102.59993 Ang^3 )
     density =      1.55372 g/cm^3

CELL_PARAMETERS (bohr)
  17.913332547  -0.071297841  -0.214815042
   0.043297597   8.034528283   0.001667518
  -0.065050418  -0.000752190   4.811361327

ATOMIC_POSITIONS (crystal)
C             0.5785157546        0.7865992159        0.4315969512
C            -0.0136905545        0.6498666144        0.6066202362
C             1.1709162749        0.1509791840        0.6366116046
C             0.5784165621        0.4517087706        0.4315262821
C             0.5785570406        0.9517082414        0.9315995994
C            -0.0133775297        0.6504026526        1.1062188932
C             1.1705594116        0.1506363809        0.1369569613
C             0.5784590404        0.2865999401       -0.0684825282



     Writing output data file ./pp.save/
     NEW-OLD atomic charge density approx. for the potential
     extrapolated charge   31.87305, renormalised to   32.00000

     total cpu time spent up to now is        9.9 secs

     Self-consistent Calculation

     iteration #  1     ecut=    40.00 Ry     beta= 0.50
     Davidson diagonalization with overlap
     ethr =  1.00E-06,  avg # of iterations =  5.4

     total cpu time spent up to now is       11.4 secs

     total energy              =     -90.80819288 Ry
     Harris-Foulkes estimate   =     -91.02447851 Ry
     estimated scf accuracy    <       0.00065865 Ry

     iteration #  2     ecut=    40.00 Ry     beta= 0.50
     Davidson diagonalization with overlap
     ethr =  2.06E-06,  avg # of iterations =  3.1

     total cpu time spent up to now is       12.4 secs

     total energy              =     -90.80880749 Ry
     Harris-Foulkes estimate   =     -90.80893157 Ry
     estimated scf accuracy    <       0.00032039 Ry

     iteration #  3     ecut=    40.00 Ry     beta= 0.50
     Davidson diagonalization with overlap
     ethr =  1.00E-06,  avg # of iterations =  1.5

     total cpu time spent up to now is       12.9 secs

     total energy              =     -90.80877888 Ry
     Harris-Foulkes estimate   =     -90.80882444 Ry
     estimated scf accuracy    <       0.00008077 Ry

     iteration #  4     ecut=    40.00 Ry     beta= 0.50
     Davidson diagonalization with overlap
     ethr =  2.52E-07,  avg # of iterations =  2.0

     total cpu time spent up to now is       13.7 secs

     total energy              =     -90.80878333 Ry
     Harris-Foulkes estimate   =     -90.80879866 Ry
     estimated scf accuracy    <       0.00007356 Ry

     iteration #  5     ecut=    40.00 Ry     beta= 0.50
     Davidson diagonalization with overlap
     ethr =  2.30E-07,  avg # of iterations =  1.0

     total cpu time spent up to now is       14.2 secs

     total energy              =     -90.80879218 Ry
     Harris-Foulkes estimate   =     -90.80879451 Ry
     estimated scf accuracy    <       0.00001653 Ry

     iteration #  6     ecut=    40.00 Ry     beta= 0.50
     Davidson diagonalization with overlap
     ethr =  5.17E-08,  avg # of iterations =  1.0

     total cpu time spent up to now is       14.7 secs

     total energy              =     -90.80879326 Ry
     Harris-Foulkes estimate   =     -90.80879342 Ry
     estimated scf accuracy    <       0.00000031 Ry

     iteration #  7     ecut=    40.00 Ry     beta= 0.50
     Davidson diagonalization with overlap
     ethr =  9.74E-10,  avg # of iterations =  2.9

     total cpu time spent up to now is       15.6 secs

     total energy              =     -90.80879334 Ry
     Harris-Foulkes estimate   =     -90.80879344 Ry
     estimated scf accuracy    <       0.00000023 Ry

     iteration #  8     ecut=    40.00 Ry     beta= 0.50
     Davidson diagonalization with overlap
     ethr =  7.26E-10,  avg # of iterations =  2.0

     total cpu time spent up to now is       16.3 secs

     End of self-consistent calculation

          k = 0.0000 0.0000 0.0000 (  2977 PWs)   bands (ev):

   -16.0100 -14.0546 -12.9259 -10.5819  -9.8463  -6.3170  -6.1233  -4.1584
    -3.5237  -3.3955  -3.0327  -1.9390  -1.2983  -0.0019   0.2604   1.2105
     4.8824   7.0703   9.2486   9.3040

          k = 0.0112-0.0003 0.9318 (  2961 PWs)   bands (ev):

   -14.9782 -13.2050 -12.1650  -9.6856  -9.2633  -7.9041  -7.4865  -6.4957
    -2.9845  -2.9427  -2.0217  -1.9169  -1.6704  -0.5956   0.0532   2.4576
     3.9857   8.3191   8.4302   8.6230

          k =-0.0223 0.0005-1.8635 (  2954 PWs)   bands (ev):

   -12.0139 -12.0137 -10.8754 -10.8742 -10.0926 -10.0913  -7.0413  -7.0410
    -5.6028  -5.6027   0.3959   0.3960   2.0370   2.0430   2.3486   2.3585
     3.3627   3.3728   4.0284   4.0366

          k = 0.0030 0.7438 0.0002 (  2957 PWs)   bands (ev):

   -15.3475 -13.7743 -13.3932 -13.2044  -6.2676  -6.1704  -6.1161  -3.7973
    -3.4223  -3.2943  -2.8696  -1.8992  -1.3981  -1.2831  -1.1962  -1.1079
     8.0576   8.1181   9.2934   9.7227

          k = 0.0141 0.7436 0.9319 (  2972 PWs)   bands (ev):

   -14.3248 -12.9454 -12.4338 -12.4014  -7.7969  -7.5881  -6.8796  -4.8682
    -4.7642  -2.4504  -2.0878  -2.0548  -1.9145  -0.0653  -0.0249   0.0646
     6.6438   8.1428   8.3006   9.4029

          k =-0.0194 0.7443-1.8634 (  2989 PWs)   bands (ev):

   -11.4745 -11.4743 -10.6776 -10.6763 -10.2846 -10.2833  -9.1563  -9.1560
    -3.4174  -3.4169   0.6672   0.6678   1.7224   1.7306   1.9791   1.9923
     3.8696   3.8780   4.0229   4.0350

          k =-0.0082 0.7441-0.9316 (  2971 PWs)   bands (ev):

   -14.3249 -12.9454 -12.4337 -12.4013  -7.7969  -7.5881  -6.8795  -4.8686
    -4.7645  -2.4506  -2.0858  -2.0567  -1.9141  -0.0636  -0.0264   0.0645
     6.6440   8.1426   8.3005   9.4031

          k =-0.5005 0.0027-0.0068 (  2958 PWs)   bands (ev):

   -16.0099 -14.0552 -12.9251 -10.5819  -9.8462  -6.3168  -6.1233  -4.1804
    -3.5233  -3.3958  -2.9684  -1.9889  -1.2957  -0.0022   0.2607   1.2075
     4.8769   7.6797   8.2213   9.3037

          k =-0.4893 0.0024 0.9250 (  2966 PWs)   bands (ev):

   -14.9782 -13.2054 -12.1644  -9.6856  -9.2632  -7.9039  -7.4865  -6.4957
    -2.9845  -2.9583  -2.0223  -1.9172  -1.6176  -0.6405   0.0558   2.4543
     3.9842   8.4291   8.6235   8.9903

          k =-0.5229 0.0032-1.8703 (  2970 PWs)   bands (ev):

   -12.0138 -12.0136 -10.8758 -10.8745 -10.0924 -10.0910  -7.0413  -7.0410
    -5.6027  -5.6026   0.3915   0.3924   2.0366   2.0426   2.3726   2.3833
     3.3346   3.3448   4.0305   4.0387

          k =-0.4975 0.7465-0.0066 (  2964 PWs)   bands (ev):

   -15.3475 -13.7753 -13.3911 -13.2055  -6.2676  -6.1704  -6.1163  -3.7367
    -3.5260  -3.2517  -2.8697  -1.8993  -1.4934  -1.2537  -1.1960  -1.0376
     8.0670   8.2538   9.3379   9.7160

          k =-0.4864 0.7463 0.9251 (  2978 PWs)   bands (ev):

   -14.3248 -12.9461 -12.4220 -12.4126  -7.7970  -7.5882  -6.8796  -4.8683
    -4.7642  -2.3619  -2.2588  -1.9715  -1.9143  -0.2225   0.0888   0.1108
     6.6447   8.1382   8.3064   9.4639

          k =-0.5199 0.7470-1.8701 (  2999 PWs)   bands (ev):

   -11.4745 -11.4742 -10.6779 -10.6767 -10.2844 -10.2831  -9.1563  -9.1560
    -3.4174  -3.4170   0.6726   0.6738   1.7091   1.7170   1.9850   1.9981
     3.8557   3.8642   4.0280   4.0402

          k =-0.5087 0.7468-0.9384 (  2979 PWs)   bands (ev):

   -14.3249 -12.9462 -12.4220 -12.4124  -7.7970  -7.5882  -6.8796  -4.8686
    -4.7644  -2.3613  -2.2597  -1.9712  -1.9139  -0.2226   0.0885   0.1112
     6.6447   8.1382   8.3063   9.4632

     the Fermi energy is     2.6541 ev

!    total energy              =     -90.80879338 Ry
     Harris-Foulkes estimate   =     -90.80879338 Ry
     estimated scf accuracy    <          4.4E-09 Ry

     The total energy is the sum of the following terms:

     one-electron contribution =     -67.54849913 Ry
     hartree contribution      =      45.12213701 Ry
     xc contribution           =     -27.57106500 Ry
     ewald contribution        =     -40.81307680 Ry
     smearing contrib. (-TS)   =       0.00171054 Ry

     convergence has been achieved in   8 iterations

     Forces acting on atoms (cartesian axes, Ry/au):

     atom    1 type  1   force =    -0.00008865    0.02649558   -0.00005291
     atom    2 type  1   force =     0.00001193    0.00034486   -0.00052064
     atom    3 type  1   force =    -0.00001257   -0.00022852   -0.00014034
     atom    4 type  1   force =     0.00008691   -0.02651454   -0.00000586
     atom    5 type  1   force =    -0.00037711   -0.02651613   -0.00005433
     atom    6 type  1   force =    -0.00033979    0.00015480    0.00019698
     atom    7 type  1   force =     0.00034179   -0.00022003    0.00048114
     atom    8 type  1   force =     0.00037749    0.02648399    0.00009596

     Total force =     0.053018     Total SCF correction =     0.000146


     Computing stress (Cartesian axis) and pressure

          total   stress  (Ry/bohr**3)                   (kbar)     P=       -3.97
  -0.00002663  -0.00000211   0.00000042           -3.92       -0.31        0.06
  -0.00000211   0.00001032   0.00000017           -0.31        1.52        0.03
   0.00000042   0.00000017  -0.00006466            0.06        0.03       -9.51


     number of scf cycles    =   2
     number of bfgs steps    =   1

     enthalpy old            =     -90.8088021819 Ry
     enthalpy new            =     -90.8087463105 Ry

     CASE: enthalpy_new > enthalpy_old

     new trust radius        =       0.0096601694 bohr
     new conv_thr            =       0.0000000100 Ry

     new unit-cell volume =    693.79175 a.u.^3 (   102.80933 Ang^3 )
     density =      1.55056 g/cm^3

CELL_PARAMETERS (bohr)
  17.920723777  -0.070784509  -0.214550083
   0.043607499   8.050152788   0.001632784
  -0.065024481  -0.000776786   4.809837894

ATOMIC_POSITIONS (crystal)
C             0.5785246263        0.7878162760        0.4316021208
C            -0.0137082747        0.6498467495        0.6066355480
C             1.1709346534        0.1509914360        0.6365793981
C             0.5784075274        0.4504937752        0.4315112182
C             0.5785662797        0.9504924894        0.9316121521
C            -0.0133860027        0.6503930569        1.1062364392
C             1.1705674310        0.1506511038        0.1369554379
C             0.5784497597        0.2878161132       -0.0684843142



     Writing output data file ./pp.save/
     NEW-OLD atomic charge density approx. for the potential
     extrapolated charge   32.06518, renormalised to   32.00000

     total cpu time spent up to now is       16.3 secs

     Self-consistent Calculation

     iteration #  1     ecut=    40.00 Ry     beta= 0.50
     Davidson diagonalization with overlap
     ethr =  1.00E-06,  avg # of iterations =  4.1

     total cpu time spent up to now is       17.6 secs

     total energy              =     -90.80915073 Ry
     Harris-Foulkes estimate   =     -90.69849469 Ry
     estimated scf accuracy    <       0.00017626 Ry

     iteration #  2     ecut=    40.00 Ry     beta= 0.50
     Davidson diagonalization with overlap
     ethr =  5.51E-07,  avg # of iterations =  2.1

     total cpu time spent up to now is       18.4 secs

     total energy              =     -90.80930400 Ry
     Harris-Foulkes estimate   =     -90.80935621 Ry
     estimated scf accuracy    <       0.00013657 Ry

     iteration #  3     ecut=    40.00 Ry     beta= 0.50
     Davidson diagonalization with overlap
     ethr =  4.27E-07,  avg # of iterations =  1.6

     total cpu time spent up to now is       19.0 secs

     total energy              =     -90.80930342 Ry
     Harris-Foulkes estimate   =     -90.80932732 Ry
     estimated scf accuracy    <       0.00006506 Ry

     iteration #  4     ecut=    40.00 Ry     beta= 0.50
     Davidson diagonalization with overlap
     ethr =  2.03E-07,  avg # of iterations =  1.9

     total cpu time spent up to now is       19.7 secs

     total energy              =     -90.80930012 Ry
     Harris-Foulkes estimate   =     -90.80932929 Ry
     estimated scf accuracy    <       0.00016657 Ry

     iteration #  5     ecut=    40.00 Ry     beta= 0.50
     Davidson diagonalization with overlap
     ethr =  2.03E-07,  avg # of iterations =  1.1

     total cpu time spent up to now is       20.3 secs

     total energy              =     -90.80930899 Ry
     Harris-Foulkes estimate   =     -90.80931779 Ry
     estimated scf accuracy    <       0.00002685 Ry

     iteration #  6     ecut=    40.00 Ry     beta= 0.50
     Davidson diagonalization with overlap
     ethr =  8.39E-08,  avg # of iterations =  1.7

     total cpu time spent up to now is       21.0 secs

     total energy              =     -90.80931280 Ry
     Harris-Foulkes estimate   =     -90.80931286 Ry
     estimated scf accuracy    <       0.00000017 Ry

     iteration #  7     ecut=    40.00 Ry     beta= 0.50
     Davidson diagonalization with overlap
     ethr =  5.26E-10,  avg # of iterations =  3.0

     total cpu time spent up to now is       22.1 secs

     total energy              =     -90.80931287 Ry
     Harris-Foulkes estimate   =     -90.80931288 Ry
     estimated scf accuracy    <       0.00000003 Ry

     iteration #  8     ecut=    40.00 Ry     beta= 0.50
     Davidson diagonalization with overlap
     ethr =  9.31E-11,  avg # of iterations =  2.0

     total cpu time spent up to now is       22.9 secs

     End of self-consistent calculation

          k = 0.0000 0.0000 0.0000 (  2977 PWs)   bands (ev):

   -15.9729 -14.0957 -12.9768 -10.6233  -9.7175  -6.3637  -6.1725  -4.1296
    -3.5419  -3.4385  -3.0744  -1.9883  -1.3505  -0.1318   0.4277   1.1368
     5.0158   7.0536   9.2215   9.3128

          k = 0.0112-0.0002 0.9320 (  2961 PWs)   bands (ev):

   -14.9408 -13.2461 -12.2154  -9.7321  -9.1263  -7.9485  -7.5356  -6.5054
    -3.0789  -2.9080  -2.0638  -1.7706  -1.7111  -0.6437   0.0021   2.3864
     4.1003   8.3036   8.3961   8.5907

          k =-0.0223 0.0005-1.8641 (  2954 PWs)   bands (ev):

   -11.9701 -11.9700 -10.9170 -10.9165 -10.1419 -10.1413  -7.1042  -7.1041
    -5.4937  -5.4937   0.4546   0.4549   1.9978   2.0037   2.3108   2.3207
     3.3177   3.3283   3.9802   3.9887

          k = 0.0029 0.7424 0.0002 (  2957 PWs)   bands (ev):

   -15.3117 -13.8179 -13.3634 -13.2519  -6.3149  -6.2190  -6.0466  -3.8279
    -3.4618  -3.2785  -2.9016  -1.7858  -1.4521  -1.3347  -1.2754  -1.1097
     8.0638   8.1482   9.2668   9.7171

          k = 0.0141 0.7421 0.9322 (  2972 PWs)   bands (ev):

   -14.2886 -12.9890 -12.4732 -12.3780  -7.8426  -7.6361  -6.8392  -4.8651
    -4.7552  -2.4721  -2.1001  -2.0659  -1.8669  -0.1149  -0.0171   0.0152
     6.6701   8.1128   8.2703   9.3854

          k =-0.0194 0.7429-1.8639 (  2989 PWs)   bands (ev):

   -11.4245 -11.4242 -10.7212 -10.7207 -10.3321 -10.3316  -9.1625  -9.1623
    -3.3692  -3.3686   0.7285   0.7295   1.6893   1.6975   1.9434   1.9569
     3.8200   3.8292   3.9754   3.9878

          k =-0.0082 0.7426-0.9319 (  2971 PWs)   bands (ev):

   -14.2887 -12.9890 -12.4731 -12.3778  -7.8425  -7.6361  -6.8393  -4.8654
    -4.7554  -2.4722  -2.0982  -2.0678  -1.8664  -0.1140  -0.0180   0.0155
     6.6701   8.1126   8.2702   9.3855

          k =-0.5003 0.0027-0.0068 (  2958 PWs)   bands (ev):

   -15.9728 -14.0963 -12.9760 -10.6232  -9.7174  -6.3634  -6.1725  -4.1534
    -3.5414  -3.4388  -3.0073  -2.0390  -1.3478  -0.1321   0.4280   1.1338
     5.0098   7.6686   8.1924   9.3127

          k =-0.4891 0.0025 0.9253 (  2966 PWs)   bands (ev):

   -14.9408 -13.2466 -12.2149  -9.7321  -9.1262  -7.9483  -7.5356  -6.5054
    -3.0789  -2.9250  -2.0644  -1.7708  -1.6562  -0.6894   0.0047   2.3831
     4.0988   8.3948   8.5912   8.9819

          k =-0.5226 0.0032-1.8709 (  2970 PWs)   bands (ev):

   -11.9700 -11.9699 -10.9174 -10.9169 -10.1416 -10.1411  -7.1043  -7.1041
    -5.4936  -5.4936   0.4502   0.4508   1.9975   2.0033   2.3356   2.3464
     3.2891   3.2997   3.9823   3.9908

          k =-0.4974 0.7451-0.0066 (  2964 PWs)   bands (ev):

   -15.3117 -13.8188 -13.3602 -13.2542  -6.3149  -6.2189  -6.0468  -3.7747
    -3.5424  -3.2520  -2.9018  -1.7859  -1.5385  -1.3049  -1.2751  -1.0484
     8.1135   8.2470   9.3076   9.7103

          k =-0.4862 0.7448 0.9254 (  2978 PWs)   bands (ev):

   -14.2886 -12.9897 -12.4702 -12.3803  -7.8426  -7.6362  -6.8393  -4.8651
    -4.7552  -2.3985  -2.2504  -1.9888  -1.8666  -0.2485   0.0390   0.0957
     6.6710   8.1081   8.2761   9.4552

          k =-0.5197 0.7456-1.8707 (  2999 PWs)   bands (ev):

   -11.4245 -11.4241 -10.7216 -10.7211 -10.3319 -10.3313  -9.1626  -9.1623
    -3.3692  -3.3687   0.7350   0.7362   1.6748   1.6826   1.9496   1.9630
     3.8061   3.8152   3.9808   3.9934

          k =-0.5085 0.7453-0.9387 (  2979 PWs)   bands (ev):

   -14.2887 -12.9897 -12.4702 -12.3801  -7.8426  -7.6363  -6.8393  -4.8654
    -4.7554  -2.3981  -2.2512  -1.9884  -1.8662  -0.2486   0.0390   0.0960
     6.6709   8.1081   8.2759   9.4545

     the Fermi energy is     2.5896 ev

!    total energy              =     -90.80931287 Ry
     Harris-Foulkes estimate   =     -90.80931288 Ry
     estimated scf accuracy    <          2.8E-09 Ry

     The total energy is the sum of the following terms:

     one-electron contribution =     -67.62685899 Ry
     hartree contribution      =      45.14598090 Ry
     xc contribution           =     -27.56448207 Ry
     ewald contribution        =     -40.76578541 Ry
     smearing contrib. (-TS)   =       0.00183269 Ry

     convergence has been achieved in   8 iterations

     Forces acting on atoms (cartesian axes, Ry/au):

     atom    1 type  1   force =    -0.00025839    0.00251820   -0.00005147
     atom    2 type  1   force =     0.00032817    0.00032721   -0.00032536
     atom    3 type  1   force =    -0.00033898   -0.00020804    0.00009753
     atom    4 type  1   force =     0.00025616   -0.00254423    0.00006777
     atom    5 type  1   force =    -0.00029283   -0.00253809   -0.00008197
     atom    6 type  1   force =    -0.00000604    0.00015291    0.00000239
     atom    7 type  1   force =     0.00002009   -0.00022495    0.00023837
     atom    8 type  1   force =     0.00029182    0.00251700    0.00005274

     Total force =     0.005151     Total SCF correction =     0.000051


     Computing stress (Cartesian axis) and pressure

          total   stress  (Ry/bohr**3)                   (kbar)     P=       -6.10
  -0.00002904  -0.00000249  -0.00000022           -4.27       -0.37       -0.03
  -0.00000249  -0.00007595   0.00000025           -0.37      -11.17        0.04
  -0.00000022   0.00000025  -0.00001936           -0.03        0.04       -2.85


     number of scf cycles    =   3
     number of bfgs steps    =   1

     enthalpy old            =     -90.8088021819 Ry
     enthalpy new            =     -90.8092657108 Ry

     CASE: enthalpy_new < enthalpy_old

     new trust radius        =       0.0116263464 bohr
     new conv_thr            =       0.0000000003 Ry

     new unit-cell volume =    691.40609 a.u.^3 (   102.45581 Ang^3 )
     density =      1.55591 g/cm^3

CELL_PARAMETERS (bohr)
  17.906505189  -0.071853081  -0.214584014
   0.043022588   8.032391873   0.001688421
  -0.065007224  -0.000736853   4.807712564

ATOMIC_POSITIONS (crystal)
C             0.5785079732        0.7879509481        0.4315897744
C            -0.0136875551        0.6498906666        0.6065658291
C             1.1709130188        0.1509635021        0.6366037731
C             0.5784240994        0.4503555490        0.4315284393
C             0.5785491689        0.9503548700        0.9315925064
C            -0.0133851380        0.6504135534        1.1062343305
C             1.1705676283        0.1506208742        0.1370057382
C             0.5784668044        0.2879510367       -0.0684723911



     Writing output data file ./pp.save/
     NEW-OLD atomic charge density approx. for the potential
     extrapolated charge   31.88959, renormalised to   32.00000

     total cpu time spent up to now is       23.0 secs

     Self-consistent Calculation

     iteration #  1     ecut=    40.00 Ry     beta= 0.50
     Davidson diagonalization with overlap
     ethr =  1.00E-06,  avg # of iterations =  2.9

     total cpu time spent up to now is       24.1 secs

     total energy              =     -90.80857539 Ry
     Harris-Foulkes estimate   =     -90.99700012 Ry
     estimated scf accuracy    <       0.00066614 Ry

     iteration #  2     ecut=    40.00 Ry     beta= 0.50
     Davidson diagonalization with overlap
     ethr =  2.08E-06,  avg # of iterations =  5.5

     total cpu time spent up to now is       25.9 secs

     total energy              =     -90.80957635 Ry
     Harris-Foulkes estimate   =     -90.80965987 Ry
     estimated scf accuracy    <       0.00020949 Ry

     iteration #  3     ecut=    40.00 Ry     beta= 0.50
     Davidson diagonalization with overlap
     ethr =  6.55E-07,  avg # of iterations =  2.0

     total cpu time spent up to now is       26.7 secs

     total energy              =     -90.80952668 Ry
     Harris-Foulkes estimate   =     -90.80957172 Ry
     estimated scf accuracy    <       0.00016491 Ry

     iteration #  4     ecut=    40.00 Ry     beta= 0.50
     Davidson diagonalization with overlap
     ethr =  5.15E-07,  avg # of iterations =  1.0

     total cpu time spent up to now is       27.4 secs

     total energy              =     -90.80950682 Ry
     Harris-Foulkes estimate   =     -90.80952096 Ry
     estimated scf accuracy    <       0.00022114 Ry

     iteration #  5     ecut=    40.00 Ry     beta= 0.50
     Davidson diagonalization with overlap
     ethr =  5.15E-07,  avg # of iterations =  1.0

     total cpu time spent up to now is       28.0 secs

     total energy              =     -90.80945427 Ry
     Harris-Foulkes estimate   =     -90.80950833 Ry
     estimated scf accuracy    <       0.00020083 Ry

     iteration #  6     ecut=    40.00 Ry     beta= 0.50
     Davidson diagonalization with overlap
     ethr =  5.15E-07,  avg # of iterations =  1.0

     total cpu time spent up to now is       28.7 secs

     total energy              =     -90.80942593 Ry
     Harris-Foulkes estimate   =     -90.80945433 Ry
     estimated scf accuracy    <       0.00012634 Ry

     iteration #  7     ecut=    40.00 Ry     beta= 0.50
     Davidson diagonalization with overlap
     ethr =  3.95E-07,  avg # of iterations =  1.0

     total cpu time spent up to now is       29.4 secs

     total energy              =     -90.80941952 Ry
     Harris-Foulkes estimate   =     -90.80942896 Ry
     estimated scf accuracy    <       0.00005289 Ry

     iteration #  8     ecut=    40.00 Ry     beta= 0.50
     Davidson diagonalization with overlap
     ethr =  1.65E-07,  avg # of iterations =  2.0

     total cpu time spent up to now is       30.4 secs

     total energy              =     -90.80939711 Ry
     Harris-Foulkes estimate   =     -90.80942366 Ry
     estimated scf accuracy    <       0.00004684 Ry

     iteration #  9     ecut=    40.00 Ry     beta= 0.50
     Davidson diagonalization with overlap
     ethr =  1.46E-07,  avg # of iterations =  3.1

     total cpu time spent up to now is       31.6 secs

     total energy              =     -90.80940819 Ry
     Harris-Foulkes estimate   =     -90.80941555 Ry
     estimated scf accuracy    <       0.00001700 Ry

     iteration # 10     ecut=    40.00 Ry     beta= 0.50
     Davidson diagonalization with overlap
     ethr =  5.31E-08,  avg # of iterations =  1.4

     total cpu time spent up to now is       32.4 secs

     total energy              =     -90.80941265 Ry
     Harris-Foulkes estimate   =     -90.80941252 Ry
     estimated scf accuracy    <       0.00000108 Ry

     iteration # 11     ecut=    40.00 Ry     beta= 0.50
     Davidson diagonalization with overlap
     ethr =  3.36E-09,  avg # of iterations =  1.1

     total cpu time spent up to now is       33.2 secs

     total energy              =     -90.80941193 Ry
     Harris-Foulkes estimate   =     -90.80941268 Ry
     estimated scf accuracy    <       0.00000182 Ry

     iteration # 12     ecut=    40.00 Ry     beta= 0.50
     Davidson diagonalization with overlap
     ethr =  3.36E-09,  avg # of iterations =  1.6

     total cpu time spent up to now is       34.1 secs

     total energy              =     -90.80941229 Ry
     Harris-Foulkes estimate   =     -90.80941230 Ry
     estimated scf accuracy    <       0.00000003 Ry

     iteration # 13     ecut=    40.00 Ry     beta= 0.50
     Davidson diagonalization with overlap
     ethr =  8.89E-11,  avg # of iterations =  2.1

     total cpu time spent up to now is       35.1 secs

     total energy              =     -90.80941229 Ry
     Harris-Foulkes estimate   =     -90.80941230 Ry
     estimated scf accuracy    <          8.7E-09 Ry

     iteration # 14     ecut=    40.00 Ry     beta= 0.50
     Davidson diagonalization with overlap
     ethr =  2.72E-11,  avg # of iterations =  1.6

     total cpu time spent up to now is       36.0 secs

     End of self-consistent calculation

          k = 0.0000 0.0000 0.0000 (  2977 PWs)   bands (ev):

   -15.9770 -14.0778 -12.9473 -10.5943  -9.7089  -6.3397  -6.1461  -4.1274
    -3.5513  -3.4185  -3.0547  -1.9597  -1.3192  -0.1221   0.4751   1.1655
     5.0560   7.0799   9.2544   9.3318

          k = 0.0112-0.0003 0.9325 (  2961 PWs)   bands (ev):

   -14.9445 -13.2273 -12.1859  -9.7044  -9.1158  -7.9251  -7.5076  -6.5125
    -3.0617  -2.9037  -2.0424  -1.7415  -1.6902  -0.6139   0.0346   2.4172
     4.1305   8.3308   8.4284   8.6211

          k =-0.0223 0.0005-1.8649 (  2954 PWs)   bands (ev):

   -11.9719 -11.9718 -10.8966 -10.8947 -10.1131 -10.1111  -7.0804  -7.0802
    -5.4819  -5.4818   0.4666   0.4667   2.0232   2.0291   2.3354   2.3453
     3.3511   3.3614   4.0167   4.0250

          k = 0.0030 0.7440 0.0002 (  2957 PWs)   bands (ev):

   -15.3130 -13.7971 -13.3556 -13.2255  -6.2904  -6.1932  -6.0140  -3.8140
    -3.4445  -3.2712  -2.9076  -1.7405  -1.4189  -1.3037  -1.2724  -1.0930
     8.0968   8.1990   9.2986   9.7384

          k = 0.0142 0.7438 0.9326 (  2972 PWs)   bands (ev):

   -14.2894 -12.9674 -12.4468 -12.3693  -7.8179  -7.6091  -6.8308  -4.8556
    -4.7356  -2.4577  -2.0826  -2.0548  -1.8322  -0.0809   0.0021   0.0469
     6.7075   8.1410   8.2986   9.4162

          k =-0.0194 0.7445-1.8648 (  2989 PWs)   bands (ev):

   -11.4221 -11.4220 -10.6986 -10.6966 -10.3053 -10.3033  -9.1565  -9.1563
    -3.3406  -3.3403   0.7437   0.7445   1.7101   1.7183   1.9657   1.9791
     3.8575   3.8668   4.0116   4.0235

          k =-0.0082 0.7443-0.9323 (  2971 PWs)   bands (ev):

   -14.2894 -12.9674 -12.4468 -12.3692  -7.8179  -7.6091  -6.8308  -4.8557
    -4.7357  -2.4578  -2.0804  -2.0569  -1.8320  -0.0800   0.0012   0.0470
     6.7075   8.1408   8.2986   9.4164

          k =-0.5007 0.0027-0.0068 (  2958 PWs)   bands (ev):

   -15.9769 -14.0784 -12.9466 -10.5942  -9.7088  -6.3395  -6.1461  -4.1510
    -3.5508  -3.4188  -2.9879  -2.0103  -1.3166  -0.1223   0.4755   1.1625
     5.0500   7.6939   8.2251   9.3317

          k =-0.4895 0.0024 0.9257 (  2966 PWs)   bands (ev):

   -14.9444 -13.2278 -12.1853  -9.7044  -9.1158  -7.9249  -7.5076  -6.5125
    -3.0617  -2.9207  -2.0430  -1.7417  -1.6354  -0.6596   0.0372   2.4139
     4.1290   8.4272   8.6218   9.0081

          k =-0.5230 0.0032-1.8717 (  2970 PWs)   bands (ev):

   -11.9718 -11.9717 -10.8969 -10.8950 -10.1129 -10.1108  -7.0804  -7.0803
    -5.4818  -5.4817   0.4620   0.4627   2.0228   2.0288   2.3604   2.3711
     3.3223   3.3326   4.0188   4.0271

          k =-0.4977 0.7467-0.0066 (  2964 PWs)   bands (ev):

   -15.3129 -13.7981 -13.3528 -13.2275  -6.2903  -6.1932  -6.0141  -3.7594
    -3.5292  -3.2419  -2.9078  -1.7405  -1.5083  -1.2738  -1.2722  -1.0288
     8.1637   8.2778   9.3433   9.7315

          k =-0.4865 0.7464 0.9258 (  2978 PWs)   bands (ev):

   -14.2893 -12.9682 -12.4432 -12.3723  -7.8180  -7.6092  -6.8309  -4.8556
    -4.7356  -2.3819  -2.2392  -1.9736  -1.8320  -0.2208   0.0713   0.1205
     6.7084   8.1361   8.3044   9.5881

          k =-0.5201 0.7472-1.8715 (  2999 PWs)   bands (ev):

   -11.4220 -11.4219 -10.6990 -10.6970 -10.3051 -10.3030  -9.1565  -9.1564
    -3.3406  -3.3404   0.7500   0.7513   1.6955   1.7033   1.9719   1.9852
     3.8434   3.8525   4.0169   4.0292

          k =-0.5089 0.7470-0.9391 (  2979 PWs)   bands (ev):

   -14.2894 -12.9682 -12.4432 -12.3722  -7.8180  -7.6093  -6.8309  -4.8558
    -4.7357  -2.3815  -2.2398  -1.9733  -1.8318  -0.2208   0.0713   0.1208
     6.7084   8.1361   8.3043   9.4979

     the Fermi energy is     2.6193 ev

!    total energy              =     -90.80941229 Ry
     Harris-Foulkes estimate   =     -90.80941229 Ry
     estimated scf accuracy    <          1.6E-10 Ry

     The total energy is the sum of the following terms:

     one-electron contribution =     -67.55494860 Ry
     hartree contribution      =      45.14191893 Ry
     xc contribution           =     -27.57935288 Ry
     ewald contribution        =     -40.81882949 Ry
     smearing contrib. (-TS)   =       0.00179974 Ry

     convergence has been achieved in  14 iterations

     Forces acting on atoms (cartesian axes, Ry/au):

     atom    1 type  1   force =    -0.00021051    0.00118259   -0.00005384
     atom    2 type  1   force =     0.00005785    0.00030551    0.00028116
     atom    3 type  1   force =    -0.00008333   -0.00019955    0.00069279
     atom    4 type  1   force =     0.00020540   -0.00120490    0.00002270
     atom    5 type  1   force =    -0.00021933   -0.00120512   -0.00003403
     atom    6 type  1   force =    -0.00023386    0.00014971   -0.00061012
     atom    7 type  1   force =     0.00025709   -0.00020678   -0.00034975
     atom    8 type  1   force =     0.00022671    0.00117854    0.00005110

     Total force =     0.002696     Total SCF correction =     0.000018


     Computing stress (Cartesian axis) and pressure

          total   stress  (Ry/bohr**3)                   (kbar)     P=       -1.33
  -0.00002738  -0.00000209  -0.00000076           -4.03       -0.31       -0.11
  -0.00000209  -0.00002191   0.00000011           -0.31       -3.22        0.02
  -0.00000076   0.00000011   0.00002226           -0.11        0.02        3.27


     number of scf cycles    =   4
     number of bfgs steps    =   2

     enthalpy old            =     -90.8092657108 Ry
     enthalpy new            =     -90.8093652929 Ry

     CASE: enthalpy_new < enthalpy_old

     new trust radius        =       0.0085839148 bohr
     new conv_thr            =            1.0E-10 Ry

     new unit-cell volume =    689.88212 a.u.^3 (   102.22998 Ang^3 )
     density =      1.55934 g/cm^3

CELL_PARAMETERS (bohr)
  17.883696223  -0.073529056  -0.215282871
   0.042159979   8.019301405   0.001741066
  -0.065071523  -0.000697544   4.811077734

ATOMIC_POSITIONS (crystal)
C             0.5784844675        0.7881089287        0.4315683806
C            -0.0136749950        0.6499608101        0.6066293406
C             1.1708990770        0.1509179759        0.6368243692
C             0.5784471519        0.4501922912        0.4315425891
C             0.5785258757        0.9501915200        0.9315745056
C            -0.0134040257        0.6504473934        1.1060456545
C             1.1705877352        0.1505733429        0.1369155119
C             0.5784907134        0.2881087377       -0.0684523515



     Writing output data file ./pp.save/
     NEW-OLD atomic charge density approx. for the potential
     extrapolated charge   31.92931, renormalised to   32.00000

     total cpu time spent up to now is       36.1 secs

     Self-consistent Calculation

     iteration #  1     ecut=    40.00 Ry     beta= 0.50
     Davidson diagonalization with overlap
     ethr =  1.00E-06,  avg # of iterations =  3.8

     total cpu time spent up to now is       37.8 secs

     total energy              =     -90.80912601 Ry
     Harris-Foulkes estimate   =     -90.92905709 Ry
     estimated scf accuracy    <       0.00023158 Ry

     iteration #  2     ecut=    40.00 Ry     beta= 0.50
     Davidson diagonalization with overlap
     ethr =  7.24E-07,  avg # of iterations =  3.6

     total cpu time spent up to now is       39.5 secs

     total energy              =     -90.80948772 Ry
     Harris-Foulkes estimate   =     -90.80956473 Ry
     estimated scf accuracy    <       0.00020293 Ry

     iteration #  3     ecut=    40.00 Ry     beta= 0.50
     Davidson diagonalization with overlap
     ethr =  6.34E-07,  avg # of iterations =  1.5

     total cpu time spent up to now is       40.5 secs

     total energy              =     -90.80946455 Ry
     Harris-Foulkes estimate   =     -90.80948229 Ry
     estimated scf accuracy    <       0.00012615 Ry

     iteration #  4     ecut=    40.00 Ry     beta= 0.50
     Davidson diagonalization with overlap
     ethr =  3.94E-07,  avg # of iterations =  1.0

     total cpu time spent up to now is       41.4 secs

     total energy              =     -90.80945272 Ry
     Harris-Foulkes estimate   =     -90.80946588 Ry
     estimated scf accuracy    <       0.00008642 Ry

     iteration #  5     ecut=    40.00 Ry     beta= 0.50
     Davidson diagonalization with overlap
     ethr =  2.70E-07,  avg # of iterations =  1.0

     total cpu time spent up to now is       42.3 secs

     total energy              =     -90.80943879 Ry
     Harris-Foulkes estimate   =     -90.80945427 Ry
     estimated scf accuracy    <       0.00005285 Ry

     iteration #  6     ecut=    40.00 Ry     beta= 0.50
     Davidson diagonalization with overlap
     ethr =  1.65E-07,  avg # of iterations =  1.9

     total cpu time spent up to now is       43.4 secs

     total energy              =     -90.80943479 Ry
     Harris-Foulkes estimate   =     -90.80944204 Ry
     estimated scf accuracy    <       0.00001160 Ry

     iteration #  7     ecut=    40.00 Ry     beta= 0.50
     Davidson diagonalization with overlap
     ethr =  3.63E-08,  avg # of iterations =  2.0

     total cpu time spent up to now is       44.8 secs

     total energy              =     -90.80943722 Ry
     Harris-Foulkes estimate   =     -90.80943791 Ry
     estimated scf accuracy    <       0.00000125 Ry

     iteration #  8     ecut=    40.00 Ry     beta= 0.50
     Davidson diagonalization with overlap
     ethr =  3.92E-09,  avg # of iterations =  2.0

     total cpu time spent up to now is       46.0 secs

     total energy              =     -90.80943763 Ry
     Harris-Foulkes estimate   =     -90.80943779 Ry
     estimated scf accuracy    <       0.00000060 Ry

     iteration #  9     ecut=    40.00 Ry     beta= 0.50
     Davidson diagonalization with overlap
     ethr =  1.88E-09,  avg # of iterations =  1.1

     total cpu time spent up to now is       47.0 secs

     total energy              =     -90.80943763 Ry
     Harris-Foulkes estimate   =     -90.80943768 Ry
     estimated scf accuracy    <       0.00000009 Ry

     iteration # 10     ecut=    40.00 Ry     beta= 0.50
     Davidson diagonalization with overlap
     ethr =  2.90E-10,  avg # of iterations =  2.4

     total cpu time spent up to now is       48.4 secs

     total energy              =     -90.80943765 Ry
     Harris-Foulkes estimate   =     -90.80943766 Ry
     estimated scf accuracy    <       0.00000003 Ry

     iteration # 11     ecut=    40.00 Ry     beta= 0.50
     Davidson diagonalization with overlap
     ethr =  7.84E-11,  avg # of iterations =  1.8

     total cpu time spent up to now is       49.7 secs

     total energy              =     -90.80943766 Ry
     Harris-Foulkes estimate   =     -90.80943766 Ry
     estimated scf accuracy    <          1.8E-09 Ry

     iteration # 12     ecut=    40.00 Ry     beta= 0.50
     Davidson diagonalization with overlap
     ethr =  5.66E-12,  avg # of iterations =  2.1

     total cpu time spent up to now is       51.0 secs

     total energy              =     -90.80943766 Ry
     Harris-Foulkes estimate   =     -90.80943766 Ry
     estimated scf accuracy    <          6.5E-10 Ry

     iteration # 13     ecut=    40.00 Ry     beta= 0.50
     Davidson diagonalization with overlap
     ethr =  2.03E-12,  avg # of iterations =  1.5

     total cpu time spent up to now is       52.2 secs

     End of self-consistent calculation

          k = 0.0000 0.0000 0.0000 (  2977 PWs)   bands (ev):

   -15.9722 -14.0569 -12.9155 -10.5631  -9.6954  -6.3141  -6.1174  -4.1199
    -3.5702  -3.3956  -3.0300  -1.9279  -1.2835  -0.1266   0.5133   1.1911
     5.0843   7.1041   9.2854   9.3038

          k = 0.0112-0.0003 0.9318 (  2961 PWs)   bands (ev):

   -14.9414 -13.2067 -12.1548  -9.6758  -9.1075  -7.9024  -7.4793  -6.5184
    -3.0541  -2.8975  -2.0217  -1.7184  -1.6676  -0.5845   0.0681   2.4415
     4.1461   8.3522   8.4318   8.6242

          k =-0.0224 0.0005-1.8636 (  2954 PWs)   bands (ev):

   -11.9738 -11.9738 -10.8811 -10.8692 -10.0893 -10.0766  -7.0596  -7.0595
    -5.4677  -5.4677   0.4714   0.4716   2.0334   2.0475   2.3485   2.3639
     3.3707   3.3866   4.0393   4.0558

          k = 0.0031 0.7452 0.0001 (  2957 PWs)   bands (ev):

   -15.3059 -13.7734 -13.3415 -13.1966  -6.2639  -6.1652  -5.9817  -3.7967
    -3.4226  -3.2592  -2.9240  -1.7010  -1.3823  -1.2821  -1.2682  -1.0755
     8.1247   8.2321   9.3261   9.7138

          k = 0.0143 0.7450 0.9320 (  2972 PWs)   bands (ev):

   -14.2841 -12.9442 -12.4193 -12.3563  -7.7938  -7.5822  -6.8299  -4.8543
    -4.7139  -2.4434  -2.0643  -2.0416  -1.8007  -0.0473   0.0188   0.0798
     6.7244   8.1412   8.2995   9.4411

          k =-0.0194 0.7458-1.8635 (  2989 PWs)   bands (ev):

   -11.4216 -11.4216 -10.6809 -10.6688 -10.2835 -10.2710  -9.1485  -9.1485
    -3.3126  -3.3125   0.7509   0.7518   1.7183   1.7322   1.9771   1.9938
     3.8819   3.8958   4.0348   4.0529

          k =-0.0082 0.7455-0.9317 (  2971 PWs)   bands (ev):

   -14.2841 -12.9442 -12.4193 -12.3563  -7.7938  -7.5822  -6.8299  -4.8543
    -4.7139  -2.4435  -2.0620  -2.0439  -1.8007  -0.0463   0.0179   0.0798
     6.7245   8.1411   8.2995   9.4413

          k =-0.5013 0.0026-0.0068 (  2958 PWs)   bands (ev):

   -15.9721 -14.0575 -12.9147 -10.5630  -9.6952  -6.3138  -6.1174  -4.1435
    -3.5697  -3.3960  -2.9628  -1.9790  -1.2807  -0.1269   0.5136   1.1881
     5.0782   7.7195   8.2553   9.3024

          k =-0.4901 0.0024 0.9250 (  2966 PWs)   bands (ev):

   -14.9414 -13.2072 -12.1543  -9.6758  -9.1074  -7.9023  -7.4793  -6.5184
    -3.0540  -2.9144  -2.0223  -1.7186  -1.6124  -0.6306   0.0708   2.4381
     4.1446   8.4305   8.6254   9.0309

          k =-0.5238 0.0032-1.8704 (  2970 PWs)   bands (ev):

   -11.9738 -11.9737 -10.8815 -10.8695 -10.0890 -10.0763  -7.0596  -7.0595
    -5.4676  -5.4676   0.4668   0.4674   2.0331   2.0471   2.3742   2.3899
     3.3414   3.3573   4.0414   4.0580

          k =-0.4983 0.7479-0.0066 (  2964 PWs)   bands (ev):

   -15.3059 -13.7744 -13.3389 -13.1983  -6.2639  -6.1652  -5.9818  -3.7402
    -3.5123  -3.2267  -2.9241  -1.7011  -1.4760  -1.2819  -1.2379  -1.0072
     8.1961   8.3045   9.3759   9.7069

          k =-0.4871 0.7476 0.9252 (  2978 PWs)   bands (ev):

   -14.2841 -12.9450 -12.4147 -12.3602  -7.7939  -7.5823  -6.8300  -4.8543
    -4.7139  -2.3648  -2.2275  -1.9566  -1.8005  -0.1953   0.1050   0.1448
     6.7255   8.1363   8.3054   9.5148

          k =-0.5207 0.7484-1.8703 (  2999 PWs)   bands (ev):

   -11.4216 -11.4215 -10.6813 -10.6692 -10.2832 -10.2707  -9.1486  -9.1485
    -3.3127  -3.3126   0.7574   0.7586   1.7032   1.7173   1.9835   2.0000
     3.8672   3.8814   4.0405   4.0583

          k =-0.5095 0.7481-0.9384 (  2979 PWs)   bands (ev):

   -14.2840 -12.9450 -12.4147 -12.3602  -7.7939  -7.5824  -6.8299  -4.8543
    -4.7139  -2.3645  -2.2281  -1.9563  -1.8005  -0.1954   0.1049   0.1449
     6.7254   8.1362   8.3054   9.5143

     the Fermi energy is     2.6424 ev

!    total energy              =     -90.80943766 Ry
     Harris-Foulkes estimate   =     -90.80943766 Ry
     estimated scf accuracy    <          2.5E-12 Ry

     The total energy is the sum of the following terms:

     one-electron contribution =     -67.28600535 Ry
     hartree contribution      =      45.02878198 Ry
     xc contribution           =     -27.57924939 Ry
     ewald contribution        =     -40.97471756 Ry
     smearing contrib. (-TS)   =       0.00175265 Ry

     convergence has been achieved in  13 iterations

     Forces acting on atoms (cartesian axes, Ry/au):

     atom    1 type  1   force =    -0.00014344   -0.00041507   -0.00001131
     atom    2 type  1   force =    -0.00020252    0.00027724   -0.00328210
     atom    3 type  1   force =     0.00027842   -0.00018698   -0.00300553
     atom    4 type  1   force =     0.00013251    0.00038937    0.00001640
     atom    5 type  1   force =    -0.00012654    0.00039289   -0.00002275
     atom    6 type  1   force =    -0.00057656    0.00012738    0.00294920
     atom    7 type  1   force =     0.00049943   -0.00016726    0.00335402
     atom    8 type  1   force =     0.00013871   -0.00041757    0.00000207

     Total force =     0.006429     Total SCF correction =     0.000003


     Computing stress (Cartesian axis) and pressure

          total   stress  (Ry/bohr**3)                   (kbar)     P=       -1.80
  -0.00002443  -0.00000167  -0.00000006           -3.59       -0.25       -0.01
  -0.00000167   0.00001498  -0.00000001           -0.25        2.20       -0.00
  -0.00000006  -0.00000001  -0.00002722           -0.01       -0.00       -4.00


     number of scf cycles    =   5
     number of bfgs steps    =   3

     enthalpy old            =     -90.8093652929 Ry
     enthalpy new            =     -90.8093907605 Ry

     CASE: enthalpy_new < enthalpy_old

     new trust radius        =       0.0060976017 bohr
     new conv_thr            =            1.0E-10 Ry

     new unit-cell volume =    688.71004 a.u.^3 (   102.05630 Ang^3 )
     density =      1.56200 g/cm^3

CELL_PARAMETERS (bohr)
  17.863007560  -0.075019450  -0.215594423
   0.041421496   8.015650438   0.001763895
  -0.065084913  -0.000677553   4.810658541

ATOMIC_POSITIONS (crystal)
C             0.5784660255        0.7881444544        0.4315548928
C            -0.0136805228        0.6500247289        0.6061297558
C             1.1709034591        0.1508756828        0.6364545478
C             0.5784648633        0.4501514886        0.4315522453
C             0.5785081387        0.9501508592        0.9315617634
C            -0.0134388666        0.6504776010        1.1064221818
C             1.1706235550        0.1505322466        0.1374137398
C             0.5785093479        0.2881439385       -0.0684411266



     Writing output data file ./pp.save/
     NEW-OLD atomic charge density approx. for the potential
     extrapolated charge   31.94554, renormalised to   32.00000

     total cpu time spent up to now is       52.3 secs

     Self-consistent Calculation

     iteration #  1     ecut=    40.00 Ry     beta= 0.50
     Davidson diagonalization with overlap
     ethr =  1.00E-06,  avg # of iterations =  3.4

     total cpu time spent up to now is       54.5 secs

     total energy              =     -90.80924022 Ry
     Harris-Foulkes estimate   =     -90.90133535 Ry
     estimated scf accuracy    <       0.00016201 Ry

     iteration #  2     ecut=    40.00 Ry     beta= 0.50
     Davidson diagonalization with overlap
     ethr =  5.06E-07,  avg # of iterations =  3.4

     total cpu time spent up to now is       56.6 secs

     total energy              =     -90.80944447 Ry
     Harris-Foulkes estimate   =     -90.80950818 Ry
     estimated scf accuracy    <       0.00016801 Ry

     iteration #  3     ecut=    40.00 Ry     beta= 0.50
     Davidson diagonalization with overlap
     ethr =  5.06E-07,  avg # of iterations =  1.4

     total cpu time spent up to now is       57.9 secs

     total energy              =     -90.80943640 Ry
     Harris-Foulkes estimate   =     -90.80944932 Ry
     estimated scf accuracy    <       0.00005813 Ry

     iteration #  4     ecut=    40.00 Ry     beta= 0.50
     Davidson diagonalization with overlap
     ethr =  1.82E-07,  avg # of iterations =  1.0

     total cpu time spent up to now is       59.1 secs

     total energy              =     -90.80942634 Ry
     Harris-Foulkes estimate   =     -90.80944137 Ry
     estimated scf accuracy    <       0.00004864 Ry

     iteration #  5     ecut=    40.00 Ry     beta= 0.50
     Davidson diagonalization with overlap
     ethr =  1.52E-07,  avg # of iterations =  2.0

     total cpu time spent up to now is       60.7 secs

     total energy              =     -90.80943152 Ry
     Harris-Foulkes estimate   =     -90.80943269 Ry
     estimated scf accuracy    <       0.00000371 Ry

     iteration #  6     ecut=    40.00 Ry     beta= 0.50
     Davidson diagonalization with overlap
     ethr =  1.16E-08,  avg # of iterations =  2.0

     total cpu time spent up to now is       62.3 secs

     total energy              =     -90.80943025 Ry
     Harris-Foulkes estimate   =     -90.80943348 Ry
     estimated scf accuracy    <       0.00000656 Ry

     iteration #  7     ecut=    40.00 Ry     beta= 0.50
     Davidson diagonalization with overlap
     ethr =  1.16E-08,  avg # of iterations =  2.0

     total cpu time spent up to now is       63.9 secs

     total energy              =     -90.80943153 Ry
     Harris-Foulkes estimate   =     -90.80943151 Ry
     estimated scf accuracy    <       0.00000004 Ry

     iteration #  8     ecut=    40.00 Ry     beta= 0.50
     Davidson diagonalization with overlap
     ethr =  1.36E-10,  avg # of iterations =  3.1

     total cpu time spent up to now is       66.3 secs

     total energy              =     -90.80943150 Ry
     Harris-Foulkes estimate   =     -90.80943156 Ry
     estimated scf accuracy    <       0.00000018 Ry

     iteration #  9     ecut=    40.00 Ry     beta= 0.50
     Davidson diagonalization with overlap
     ethr =  1.36E-10,  avg # of iterations =  2.0

     total cpu time spent up to now is       68.0 secs

     total energy              =     -90.80943152 Ry
     Harris-Foulkes estimate   =     -90.80943152 Ry
     estimated scf accuracy    <       0.00000001 Ry

     iteration # 10     ecut=    40.00 Ry     beta= 0.50
     Davidson diagonalization with overlap
     ethr =  3.39E-11,  avg # of iterations =  1.2

     total cpu time spent up to now is       69.3 secs

     total energy              =     -90.80943152 Ry
     Harris-Foulkes estimate   =     -90.80943152 Ry
     estimated scf accuracy    <          3.3E-10 Ry

     iteration # 11     ecut=    40.00 Ry     beta= 0.50
     Davidson diagonalization with overlap
     ethr =  1.03E-12,  avg # of iterations =  3.0

     total cpu time spent up to now is       71.5 secs

     End of self-consistent calculation

          k = 0.0000 0.0000 0.0000 (  2977 PWs)   bands (ev):

   -15.9631 -14.0482 -12.9021 -10.5473  -9.6829  -6.3031  -6.1055  -4.1100
    -3.5627  -3.3876  -3.0193  -1.9155  -1.2688  -0.1158   0.5343   1.2064
     5.1033   7.1210   9.3055   9.3184

          k = 0.0112-0.0003 0.9319 (  2961 PWs)   bands (ev):

   -14.9322 -13.1978 -12.1416  -9.6603  -9.0947  -7.8919  -7.4668  -6.5102
    -3.0413  -2.8871  -2.0134  -1.7015  -1.6567  -0.5719   0.0830   2.4573
     4.1628   8.3689   8.4426   8.6364

          k =-0.0225 0.0005-1.8638 (  2954 PWs)   bands (ev):

   -11.9642 -11.9642 -10.8809 -10.8500 -10.0863 -10.0534  -7.0451  -7.0450
    -5.4547  -5.4546   0.4835   0.4840   2.0325   2.0669   2.3497   2.3858
     3.3731   3.4103   4.0436   4.0828

          k = 0.0031 0.7456 0.0001 (  2957 PWs)   bands (ev):

   -15.2962 -13.7637 -13.3300 -13.1845  -6.2527  -6.1535  -5.9644  -3.7894
    -3.4133  -3.2479  -2.9159  -1.6807  -1.3680  -1.2724  -1.2534  -1.0622
     8.1429   8.2533   9.3430   9.7276

          k = 0.0144 0.7453 0.9320 (  2972 PWs)   bands (ev):

   -14.2743 -12.9343 -12.4073 -12.3444  -7.7828  -7.5702  -6.8183  -4.8426
    -4.6998  -2.4357  -2.0543  -2.0307  -1.7831  -0.0328   0.0326   0.0947
     6.7419   8.1515   8.3106   9.4589

          k =-0.0194 0.7461-1.8636 (  2989 PWs)   bands (ev):

   -11.4112 -11.4110 -10.6801 -10.6487 -10.2813 -10.2489  -9.1376  -9.1375
    -3.2964  -3.2962   0.7635   0.7647   1.7178   1.7507   1.9774   2.0139
     3.8833   3.9242   4.0398   4.0792

          k =-0.0081 0.7458-0.9317 (  2971 PWs)   bands (ev):

   -14.2742 -12.9343 -12.4073 -12.3445  -7.7828  -7.5702  -6.8182  -4.8426
    -4.6997  -2.4358  -2.0524  -2.0325  -1.7833  -0.0319   0.0317   0.0947
     6.7420   8.1514   8.3106   9.4591

          k =-0.5019 0.0026-0.0068 (  2958 PWs)   bands (ev):

   -15.9630 -14.0488 -12.9013 -10.5473  -9.6828  -6.3029  -6.1055  -4.1340
    -3.5622  -3.3879  -2.9513  -1.9672  -1.2660  -0.1160   0.5346   1.2033
     5.0971   7.7389   8.2749   9.3158

          k =-0.4907 0.0023 0.9251 (  2966 PWs)   bands (ev):

   -14.9321 -13.1983 -12.1410  -9.6603  -9.0946  -7.8917  -7.4668  -6.5102
    -3.0413  -2.9043  -2.0140  -1.7017  -1.6008  -0.6186   0.0858   2.4538
     4.1612   8.4413   8.6378   9.0500

          k =-0.5244 0.0031-1.8706 (  2970 PWs)   bands (ev):

   -11.9642 -11.9641 -10.8812 -10.8504 -10.0860 -10.0531  -7.0452  -7.0450
    -5.4546  -5.4545   0.4790   0.4796   2.0321   2.0665   2.3759   2.4120
     3.3435   3.3806   4.0458   4.0850

          k =-0.4988 0.7482-0.0066 (  2964 PWs)   bands (ev):

   -15.2961 -13.7647 -13.3273 -13.1862  -6.2527  -6.1535  -5.9646  -3.7325
    -3.5033  -3.2155  -2.9160  -1.6808  -1.4629  -1.2721  -1.2227  -0.9930
     8.2166   8.3236   9.3960   9.7207

          k =-0.4875 0.7479 0.9252 (  2978 PWs)   bands (ev):

   -14.2742 -12.9351 -12.4026 -12.3485  -7.7828  -7.5703  -6.8183  -4.8427
    -4.6998  -2.3569  -2.2177  -1.9456  -1.7829  -0.1825   0.1204   0.1597
     6.7430   8.1464   8.3165   9.5329

          k =-0.5213 0.7487-1.8704 (  2999 PWs)   bands (ev):

   -11.4111 -11.4110 -10.6805 -10.6491 -10.2809 -10.2486  -9.1376  -9.1375
    -3.2965  -3.2963   0.7704   0.7715   1.7024   1.7355   1.9838   2.0203
     3.8689   3.9090   4.0454   4.0849

          k =-0.5100 0.7484-0.9385 (  2979 PWs)   bands (ev):

   -14.2742 -12.9350 -12.4026 -12.3486  -7.7828  -7.5703  -6.8183  -4.8426
    -4.6997  -2.3566  -2.2182  -1.9453  -1.7830  -0.1826   0.1203   0.1598
     6.7429   8.1464   8.3165   9.5324

     the Fermi energy is     2.6582 ev

!    total energy              =     -90.80943152 Ry
     Harris-Foulkes estimate   =     -90.80943152 Ry
     estimated scf accuracy    <          8.2E-11 Ry

     The total energy is the sum of the following terms:

     one-electron contribution =     -67.10543141 Ry
     hartree contribution      =      44.95474409 Ry
     xc contribution           =     -27.58256274 Ry
     ewald contribution        =     -41.07791082 Ry
     smearing contrib. (-TS)   =       0.00172937 Ry

     convergence has been achieved in  11 iterations

     Forces acting on atoms (cartesian axes, Ry/au):

     atom    1 type  1   force =    -0.00008460   -0.00084815    0.00000732
     atom    2 type  1   force =    -0.00049976    0.00023899    0.00801821
     atom    3 type  1   force =     0.00027394   -0.00016706    0.00825550
     atom    4 type  1   force =     0.00007502    0.00082065    0.00000081
     atom    5 type  1   force =    -0.00006185    0.00081849   -0.00000770
     atom    6 type  1   force =    -0.00054275    0.00010927   -0.00835513
     atom    7 type  1   force =     0.00076426   -0.00013033   -0.00790161
     atom    8 type  1   force =     0.00007575   -0.00084186   -0.00001740

     Total force =     0.016395     Total SCF correction =     0.000012


     Computing stress (Cartesian axis) and pressure

          total   stress  (Ry/bohr**3)                   (kbar)     P=       -0.77
  -0.00002312  -0.00000135  -0.00000012           -3.40       -0.20       -0.02
  -0.00000135   0.00002670  -0.00000010           -0.20        3.93       -0.01
  -0.00000012  -0.00000010  -0.00001926           -0.02       -0.01       -2.83


     number of scf cycles    =   6
     number of bfgs steps    =   4

     enthalpy old            =     -90.8093907605 Ry
     enthalpy new            =     -90.8093846995 Ry

     CASE: enthalpy_new > enthalpy_old

     new trust radius        =       0.0026807787 bohr
     new conv_thr            =            1.0E-10 Ry

     new unit-cell volume =    689.36687 a.u.^3 (   102.15363 Ang^3 )
     density =      1.56051 g/cm^3

CELL_PARAMETERS (bohr)
  17.874603443  -0.074184092  -0.215419800
   0.041835411   8.017696785   0.001751100
  -0.065077408  -0.000688758   4.810893496

ATOMIC_POSITIONS (crystal)
C             0.5784763621        0.7881245424        0.4315624526
C            -0.0136774245        0.6499889028        0.6064097704
C             1.1709010030        0.1508993879        0.6366618307
C             0.5784549362        0.4501743583        0.4315468331
C             0.5785180802        0.9501736494        0.9315689053
C            -0.0134193385        0.6504606698        1.1062111403
C             1.1706034782        0.1505552808        0.1371344858
C             0.5784989034        0.2881242087       -0.0684474181



     Writing output data file ./pp.save/
     NEW-OLD atomic charge density approx. for the potential
     extrapolated charge   32.03049, renormalised to   32.00000

     total cpu time spent up to now is       71.7 secs

     Self-consistent Calculation

     iteration #  1     ecut=    40.00 Ry     beta= 0.50
     Davidson diagonalization with overlap
     ethr =  1.00E-06,  avg # of iterations =  2.0

     total cpu time spent up to now is       73.6 secs

     total energy              =     -90.80939868 Ry
     Harris-Foulkes estimate   =     -90.75790289 Ry
     estimated scf accuracy    <       0.00003661 Ry

     iteration #  2     ecut=    40.00 Ry     beta= 0.50
     Davidson diagonalization with overlap
     ethr =  1.14E-07,  avg # of iterations =  2.8

     total cpu time spent up to now is       76.0 secs

     total energy              =     -90.80944023 Ry
     Harris-Foulkes estimate   =     -90.80946621 Ry
     estimated scf accuracy    <       0.00008182 Ry

     iteration #  3     ecut=    40.00 Ry     beta= 0.50
     Davidson diagonalization with overlap
     ethr =  1.14E-07,  avg # of iterations =  1.9

     total cpu time spent up to now is       77.8 secs

     total energy              =     -90.80944843 Ry
     Harris-Foulkes estimate   =     -90.80945048 Ry
     estimated scf accuracy    <       0.00000757 Ry

     iteration #  4     ecut=    40.00 Ry     beta= 0.50
     Davidson diagonalization with overlap
     ethr =  2.37E-08,  avg # of iterations =  1.0

     total cpu time spent up to now is       79.2 secs

     total energy              =     -90.80944797 Ry
     Harris-Foulkes estimate   =     -90.80944903 Ry
     estimated scf accuracy    <       0.00000651 Ry

     iteration #  5     ecut=    40.00 Ry     beta= 0.50
     Davidson diagonalization with overlap
     ethr =  2.04E-08,  avg # of iterations =  1.0

     total cpu time spent up to now is       80.7 secs

     total energy              =     -90.80944662 Ry
     Harris-Foulkes estimate   =     -90.80944860 Ry
     estimated scf accuracy    <       0.00000494 Ry

     iteration #  6     ecut=    40.00 Ry     beta= 0.50
     Davidson diagonalization with overlap
     ethr =  1.54E-08,  avg # of iterations =  2.0

     total cpu time spent up to now is       82.6 secs

     total energy              =     -90.80944730 Ry
     Harris-Foulkes estimate   =     -90.80944731 Ry
     estimated scf accuracy    <       0.00000004 Ry

     iteration #  7     ecut=    40.00 Ry     beta= 0.50
     Davidson diagonalization with overlap
     ethr =  1.31E-10,  avg # of iterations =  3.0

     total cpu time spent up to now is       85.5 secs

     total energy              =     -90.80944731 Ry
     Harris-Foulkes estimate   =     -90.80944732 Ry
     estimated scf accuracy    <          7.0E-09 Ry

     iteration #  8     ecut=    40.00 Ry     beta= 0.50
     Davidson diagonalization with overlap
     ethr =  2.17E-11,  avg # of iterations =  2.0

     total cpu time spent up to now is       87.7 secs

     total energy              =     -90.80944731 Ry
     Harris-Foulkes estimate   =     -90.80944731 Ry
     estimated scf accuracy    <          2.6E-09 Ry

     iteration #  9     ecut=    40.00 Ry     beta= 0.50
     Davidson diagonalization with overlap
     ethr =  8.24E-12,  avg # of iterations =  2.0

     total cpu time spent up to now is       89.9 secs

     total energy              =     -90.80944731 Ry
     Harris-Foulkes estimate   =     -90.80944731 Ry
     estimated scf accuracy    <          1.2E-10 Ry

     iteration # 10     ecut=    40.00 Ry     beta= 0.50
     Davidson diagonalization with overlap
     ethr =  3.78E-13,  avg # of iterations =  2.6

     total cpu time spent up to now is       92.3 secs

     End of self-consistent calculation

          k = 0.0000 0.0000 0.0000 (  2977 PWs)   bands (ev):

   -15.9687 -14.0527 -12.9092 -10.5566  -9.6903  -6.3089  -6.1118  -4.1160
    -3.5674  -3.3917  -3.0249  -1.9221  -1.2767  -0.1223   0.5221   1.1974
     5.0922   7.1115   9.2944   9.3097

          k = 0.0112-0.0003 0.9318 (  2961 PWs)   bands (ev):

   -14.9378 -13.2024 -12.1486  -9.6695  -9.1023  -7.8974  -7.4735  -6.5152
    -3.0489  -2.8933  -2.0177  -1.7114  -1.6625  -0.5786   0.0751   2.4480
     4.1530   8.3596   8.4369   8.6299

          k =-0.0225 0.0005-1.8637 (  2954 PWs)   bands (ev):

   -11.9701 -11.9700 -10.8739 -10.8671 -10.0804 -10.0731  -7.0537  -7.0536
    -5.4624  -5.4624   0.4763   0.4766   2.0404   2.0494   2.3557   2.3675
     3.3787   3.3906   4.0493   4.0603

          k = 0.0031 0.7454 0.0001 (  2957 PWs)   bands (ev):

   -15.3021 -13.7688 -13.3369 -13.1909  -6.2586  -6.1597  -5.9746  -3.7932
    -3.4182  -3.2545  -2.9209  -1.6926  -1.3757  -1.2783  -1.2613  -1.0701
     8.1326   8.2410   9.3336   9.7194

          k = 0.0143 0.7451 0.9320 (  2972 PWs)   bands (ev):

   -14.2803 -12.9395 -12.4137 -12.3515  -7.7886  -7.5766  -6.8253  -4.8497
    -4.7082  -2.4398  -2.0597  -2.0370  -1.7934  -0.0406   0.0245   0.0867
     6.7317   8.1461   8.3047   9.4488

          k =-0.0194 0.7459-1.8635 (  2989 PWs)   bands (ev):

   -11.4175 -11.4174 -10.6734 -10.6664 -10.2751 -10.2679  -9.1442  -9.1441
    -3.3060  -3.3058   0.7561   0.7570   1.7245   1.7346   1.9829   1.9976
     3.8895   3.9020   4.0444   4.0577

          k =-0.0081 0.7456-0.9317 (  2971 PWs)   bands (ev):

   -14.2802 -12.9395 -12.4137 -12.3515  -7.7886  -7.5766  -6.8252  -4.8496
    -4.7082  -2.4399  -2.0575  -2.0390  -1.7935  -0.0397   0.0236   0.0867
     6.7318   8.1460   8.3047   9.4491

          k =-0.5016 0.0026-0.0068 (  2958 PWs)   bands (ev):

   -15.9686 -14.0533 -12.9084 -10.5566  -9.6902  -6.3086  -6.1118  -4.1397
    -3.5669  -3.3921  -2.9574  -1.9735  -1.2739  -0.1226   0.5224   1.1943
     5.0861   7.7279   8.2640   9.3078

          k =-0.4904 0.0024 0.9251 (  2966 PWs)   bands (ev):

   -14.9378 -13.2029 -12.1481  -9.6695  -9.1023  -7.8973  -7.4735  -6.5153
    -3.0489  -2.9104  -2.0183  -1.7116  -1.6070  -0.6250   0.0778   2.4446
     4.1515   8.4356   8.6312   9.0392

          k =-0.5241 0.0031-1.8705 (  2970 PWs)   bands (ev):

   -11.9700 -11.9699 -10.8743 -10.8674 -10.0802 -10.0729  -7.0537  -7.0536
    -5.4623  -5.4623   0.4718   0.4723   2.0400   2.0490   2.3814   2.3938
     3.3494   3.3612   4.0514   4.0624

          k =-0.4985 0.7480-0.0066 (  2964 PWs)   bands (ev):

   -15.3020 -13.7698 -13.3343 -13.1926  -6.2586  -6.1597  -5.9747  -3.7365
    -3.5082  -3.2219  -2.9210  -1.6926  -1.4700  -1.2781  -1.2309  -1.0013
     8.2048   8.3128   9.3848   9.7125

          k =-0.4873 0.7477 0.9252 (  2978 PWs)   bands (ev):

   -14.2802 -12.9402 -12.4090 -12.3555  -7.7886  -7.5767  -6.8253  -4.8497
    -4.7082  -2.3610  -2.2234  -1.9516  -1.7932  -0.1897   0.1121   0.1512
     6.7327   8.1411   8.3106   9.5223

          k =-0.5210 0.7485-1.8703 (  2999 PWs)   bands (ev):

   -11.4174 -11.4173 -10.6738 -10.6668 -10.2748 -10.2676  -9.1443  -9.1442
    -3.3061  -3.3059   0.7627   0.7639   1.7095   1.7194   1.9893   2.0039
     3.8750   3.8871   4.0498   4.0635

          k =-0.5097 0.7483-0.9385 (  2979 PWs)   bands (ev):

   -14.2802 -12.9402 -12.4090 -12.3556  -7.7887  -7.5767  -6.8253  -4.8496
    -4.7081  -2.3606  -2.2239  -1.9514  -1.7933  -0.1897   0.1120   0.1514
     6.7327   8.1411   8.3106   9.5218

     the Fermi energy is     2.6488 ev

!    total energy              =     -90.80944731 Ry
     Harris-Foulkes estimate   =     -90.80944731 Ry
     estimated scf accuracy    <          8.3E-12 Ry

     The total energy is the sum of the following terms:

     one-electron contribution =     -67.20651832 Ry
     hartree contribution      =      44.99612327 Ry
     xc contribution           =     -27.58069473 Ry
     ewald contribution        =     -41.02010080 Ry
     smearing contrib. (-TS)   =       0.00174328 Ry

     convergence has been achieved in  10 iterations

     Forces acting on atoms (cartesian axes, Ry/au):

     atom    1 type  1   force =    -0.00011773   -0.00061098   -0.00000323
     atom    2 type  1   force =    -0.00033158    0.00026044    0.00167173
     atom    3 type  1   force =     0.00027565   -0.00017818    0.00193091
     atom    4 type  1   force =     0.00010719    0.00058446    0.00000960
     atom    5 type  1   force =    -0.00009815    0.00058549   -0.00001622
     atom    6 type  1   force =    -0.00056032    0.00011962   -0.00200616
     atom    7 type  1   force =     0.00061403   -0.00015127   -0.00158023
     atom    8 type  1   force =     0.00011091   -0.00060959   -0.00000641

     Total force =     0.003942     Total SCF correction =     0.000005


     Computing stress (Cartesian axis) and pressure

          total   stress  (Ry/bohr**3)                   (kbar)     P=       -1.35
  -0.00002387  -0.00000153  -0.00000009           -3.51       -0.23       -0.01
  -0.00000153   0.00002006  -0.00000005           -0.23        2.95       -0.01
  -0.00000009  -0.00000005  -0.00002377           -0.01       -0.01       -3.50


     number of scf cycles    =   7
     number of bfgs steps    =   4

     enthalpy old            =     -90.8093907605 Ry
     enthalpy new            =     -90.8094004518 Ry

     CASE: enthalpy_new < enthalpy_old

     new trust radius        =       0.0079061258 bohr
     new conv_thr            =            1.0E-10 Ry

     new unit-cell volume =    687.99772 a.u.^3 (   101.95074 Ang^3 )
     density =      1.56362 g/cm^3

CELL_PARAMETERS (bohr)
  17.847770740  -0.076062379  -0.215562100
   0.040925523   8.019322672   0.001756398
  -0.065057663  -0.000678043   4.807583651

ATOMIC_POSITIONS (crystal)
C             0.5784557273        0.7880873639        0.4315512001
C            -0.0136998469        0.6500708825        0.6063461714
C             1.1709221068        0.1508444999        0.6367545953
C             0.5784744106        0.4502041255        0.4315563593
C             0.5784987237        0.9502035599        0.9315555262
C            -0.0134801442        0.6504986945        1.1061063179
C             1.1706653457        0.1505048363        0.1372177308
C             0.5785196769        0.2880870375       -0.0684399010



     Writing output data file ./pp.save/
     NEW-OLD atomic charge density approx. for the potential
     extrapolated charge   31.93632, renormalised to   32.00000

     total cpu time spent up to now is       92.5 secs

     Self-consistent Calculation

     iteration #  1     ecut=    40.00 Ry     beta= 0.50
     Davidson diagonalization with overlap
     ethr =  1.00E-06,  avg # of iterations =  2.3

     total cpu time spent up to now is       94.9 secs

     total energy              =     -90.80921479 Ry
     Harris-Foulkes estimate   =     -90.91678516 Ry
     estimated scf accuracy    <       0.00020528 Ry

     iteration #  2     ecut=    40.00 Ry     beta= 0.50
     Davidson diagonalization with overlap
     ethr =  6.42E-07,  avg # of iterations =  3.5

     total cpu time spent up to now is       98.2 secs

     total energy              =     -90.80950104 Ry
     Harris-Foulkes estimate   =     -90.80957734 Ry
     estimated scf accuracy    <       0.00019889 Ry

     iteration #  3     ecut=    40.00 Ry     beta= 0.50
     Davidson diagonalization with overlap
     ethr =  6.22E-07,  avg # of iterations =  1.3

     total cpu time spent up to now is       99.9 secs

     total energy              =     -90.80947589 Ry
     Harris-Foulkes estimate   =     -90.80950223 Ry
     estimated scf accuracy    <       0.00008061 Ry

     iteration #  4     ecut=    40.00 Ry     beta= 0.50
     Davidson diagonalization with overlap
[...]
     Davidson diagonalization with overlap
     ethr =  9.46E-09,  avg # of iterations =  1.0

     total cpu time spent up to now is     1541.0 secs

     total energy              =     -90.80975334 Ry
     Harris-Foulkes estimate   =     -90.80976675 Ry
     estimated scf accuracy    <       0.00003408 Ry

     iteration #205     ecut=    40.00 Ry     beta= 0.50
     Davidson diagonalization with overlap
     ethr =  9.46E-09,  avg # of iterations =  2.4

     total cpu time spent up to now is     1551.1 secs

     total energy              =     -90.80976340 Ry
     Harris-Foulkes estimate   =     -90.80974907 Ry
     estimated scf accuracy    <       0.00006089 Ry

     iteration #206     ecut=    40.00 Ry     beta= 0.50
     Davidson diagonalization with overlap
     ethr =  9.46E-09,  avg # of iterations =  2.0

     total cpu time spent up to now is     1560.5 secs

     total energy              =     -90.80979244 Ry
     Harris-Foulkes estimate   =     -90.80976135 Ry
     estimated scf accuracy    <       0.00004105 Ry

     iteration #207     ecut=    40.00 Ry     beta= 0.50
     Davidson diagonalization with overlap
     ethr =  9.46E-09,  avg # of iterations =  2.3

     total cpu time spent up to now is     1571.2 secs

     total energy              =     -90.80986537 Ry
     Harris-Foulkes estimate   =     -90.80978331 Ry
     estimated scf accuracy    <       0.00002182 Ry

     iteration #208     ecut=    40.00 Ry     beta= 0.50
     Davidson diagonalization with overlap
     ethr =  9.46E-09,  avg # of iterations =  4.5

     total cpu time spent up to now is     1588.2 secs

     total energy              =     -90.80972952 Ry
     Harris-Foulkes estimate   =     -90.80986742 Ry
     estimated scf accuracy    <       0.00020381 Ry

     iteration #209     ecut=    40.00 Ry     beta= 0.50
     Davidson diagonalization with overlap
     ethr =  9.46E-09,  avg # of iterations =  4.1

     total cpu time spent up to now is     1603.9 secs

     total energy              =     -90.80981320 Ry
     Harris-Foulkes estimate   =     -90.80977344 Ry
     estimated scf accuracy    <       0.00002699 Ry

     iteration #210     ecut=    40.00 Ry     beta= 0.50
     Davidson diagonalization with overlap
     ethr =  9.46E-09,  avg # of iterations =  3.7

     total cpu time spent up to now is     1618.0 secs

     total energy              =     -90.80978675 Ry
     Harris-Foulkes estimate   =     -90.80980246 Ry
     estimated scf accuracy    <       0.00003326 Ry

     iteration #211     ecut=    40.00 Ry     beta= 0.50
     Davidson diagonalization with overlap
     ethr =  9.46E-09,  avg # of iterations =  2.1

     total cpu time spent up to now is     1628.0 secs

     total energy              =     -90.80977980 Ry
     Harris-Foulkes estimate   =     -90.80978620 Ry
     estimated scf accuracy    <       0.00002191 Ry

     iteration #212     ecut=    40.00 Ry     beta= 0.50
     Davidson diagonalization with overlap
     ethr =  9.46E-09,  avg # of iterations =  2.0

     total cpu time spent up to now is     1637.6 secs

     total energy              =     -90.80976065 Ry
     Harris-Foulkes estimate   =     -90.80977913 Ry
     estimated scf accuracy    <       0.00002327 Ry

     iteration #213     ecut=    40.00 Ry     beta= 0.50
     Davidson diagonalization with overlap
     ethr =  9.46E-09,  avg # of iterations =  3.6

     total cpu time spent up to now is     1651.8 secs

     total energy              =     -90.80973276 Ry
     Harris-Foulkes estimate   =     -90.80974378 Ry
     estimated scf accuracy    <       0.00007012 Ry

     iteration #214     ecut=    40.00 Ry     beta= 0.50
     Davidson diagonalization with overlap
     ethr =  9.46E-09,  avg # of iterations =  2.0

     total cpu time spent up to now is     1661.5 secs

     total energy              =     -90.80975125 Ry
     Harris-Foulkes estimate   =     -90.80973141 Ry
     estimated scf accuracy    <       0.00009159 Ry

     iteration #215     ecut=    40.00 Ry     beta= 0.50
     Davidson diagonalization with overlap
     ethr =  9.46E-09,  avg # of iterations =  2.0

     total cpu time spent up to now is     1671.2 secs

     total energy              =     -90.80974293 Ry
     Harris-Foulkes estimate   =     -90.80974853 Ry
     estimated scf accuracy    <       0.00006174 Ry

     iteration #216     ecut=    40.00 Ry     beta= 0.50
     Davidson diagonalization with overlap
     ethr =  9.46E-09,  avg # of iterations =  1.0

     total cpu time spent up to now is     1678.6 secs

     total energy              =     -90.80973910 Ry
     Harris-Foulkes estimate   =     -90.80974255 Ry
     estimated scf accuracy    <       0.00007234 Ry

     iteration #217     ecut=    40.00 Ry     beta= 0.50
     Davidson diagonalization with overlap
     ethr =  9.46E-09,  avg # of iterations =  1.0

     total cpu time spent up to now is     1686.1 secs

     total energy              =     -90.80993287 Ry
     Harris-Foulkes estimate   =     -90.80973899 Ry
     estimated scf accuracy    <       0.00007853 Ry

     iteration #218     ecut=    40.00 Ry     beta= 0.50
     Davidson diagonalization with overlap
     ethr =  9.46E-09,  avg # of iterations =  4.1

     total cpu time spent up to now is     1702.8 secs

     total energy              =     -90.80975518 Ry
     Harris-Foulkes estimate   =     -90.80983327 Ry
     estimated scf accuracy    <       0.00009635 Ry

     iteration #219     ecut=    40.00 Ry     beta= 0.50
     Davidson diagonalization with overlap
     ethr =  9.46E-09,  avg # of iterations =  4.2

     total cpu time spent up to now is     1719.5 secs

     total energy              =     -90.80977599 Ry
     Harris-Foulkes estimate   =     -90.80976225 Ry
     estimated scf accuracy    <       0.00003997 Ry

     iteration #220     ecut=    40.00 Ry     beta= 0.50
     Davidson diagonalization with overlap
     ethr =  9.46E-09,  avg # of iterations =  2.0

     total cpu time spent up to now is     1729.5 secs

     total energy              =     -90.80995637 Ry
     Harris-Foulkes estimate   =     -90.80977365 Ry
     estimated scf accuracy    <       0.00002671 Ry

     iteration #221     ecut=    40.00 Ry     beta= 0.50
     Davidson diagonalization with overlap
     ethr =  9.46E-09,  avg # of iterations =  4.5

     total cpu time spent up to now is     1746.9 secs

     total energy              =     -90.81021078 Ry
     Harris-Foulkes estimate   =     -90.80997249 Ry
     estimated scf accuracy    <       0.00067043 Ry

     iteration #222     ecut=    40.00 Ry     beta= 0.50
     Davidson diagonalization with overlap
     ethr =  9.46E-09,  avg # of iterations =  4.0

     total cpu time spent up to now is     1763.0 secs

     total energy              =     -90.81032396 Ry
     Harris-Foulkes estimate   =     -90.81029735 Ry
     estimated scf accuracy    <       0.00277558 Ry

     iteration #223     ecut=    40.00 Ry     beta= 0.50
     Davidson diagonalization with overlap
     ethr =  9.46E-09,  avg # of iterations =  1.0

     total cpu time spent up to now is     1770.8 secs

     total energy              =     -90.80947244 Ry
     Harris-Foulkes estimate   =     -90.81032437 Ry
     estimated scf accuracy    <       0.00297968 Ry

     iteration #224     ecut=    40.00 Ry     beta= 0.50
     Davidson diagonalization with overlap
     ethr =  9.46E-09,  avg # of iterations =  4.3

     total cpu time spent up to now is     1788.1 secs

     total energy              =     -90.80975893 Ry
     Harris-Foulkes estimate   =     -90.80983387 Ry
     estimated scf accuracy    <       0.00009812 Ry

     iteration #225     ecut=    40.00 Ry     beta= 0.50
     Davidson diagonalization with overlap
     ethr =  9.46E-09,  avg # of iterations =  4.2

     total cpu time spent up to now is     1805.1 secs

     total energy              =     -90.80977909 Ry
     Harris-Foulkes estimate   =     -90.80976923 Ry
     estimated scf accuracy    <       0.00003119 Ry

     iteration #226     ecut=    40.00 Ry     beta= 0.50
     Davidson diagonalization with overlap
     ethr =  9.46E-09,  avg # of iterations =  2.0

     total cpu time spent up to now is     1815.4 secs

     total energy              =     -90.80977101 Ry
     Harris-Foulkes estimate   =     -90.80977774 Ry
     estimated scf accuracy    <       0.00002391 Ry

     iteration #227     ecut=    40.00 Ry     beta= 0.50
     Davidson diagonalization with overlap
     ethr =  9.46E-09,  avg # of iterations =  2.0

     total cpu time spent up to now is     1826.3 secs

     total energy              =     -90.80976833 Ry
     Harris-Foulkes estimate   =     -90.80976997 Ry
     estimated scf accuracy    <       0.00003051 Ry

     iteration #228     ecut=    40.00 Ry     beta= 0.50
     Davidson diagonalization with overlap
     ethr =  9.46E-09,  avg # of iterations =  1.0

     total cpu time spent up to now is     1834.1 secs

     total energy              =     -90.80976476 Ry
     Harris-Foulkes estimate   =     -90.80976829 Ry
     estimated scf accuracy    <       0.00003237 Ry

     iteration #229     ecut=    40.00 Ry     beta= 0.50
     Davidson diagonalization with overlap
     ethr =  9.46E-09,  avg # of iterations =  1.0

     total cpu time spent up to now is     1841.9 secs

     total energy              =     -90.80977416 Ry
     Harris-Foulkes estimate   =     -90.80976453 Ry
     estimated scf accuracy    <       0.00003707 Ry

     iteration #230     ecut=    40.00 Ry     beta= 0.50
     Davidson diagonalization with overlap
     ethr =  9.46E-09,  avg # of iterations =  2.0

     total cpu time spent up to now is     1852.2 secs

     total energy              =     -90.80980281 Ry
     Harris-Foulkes estimate   =     -90.80977290 Ry
     estimated scf accuracy    <       0.00002748 Ry

     iteration #231     ecut=    40.00 Ry     beta= 0.50
     Davidson diagonalization with overlap
     ethr =  9.46E-09,  avg # of iterations =  3.0

     total cpu time spent up to now is     1866.0 secs

     total energy              =     -90.80979490 Ry
     Harris-Foulkes estimate   =     -90.80979515 Ry
     estimated scf accuracy    <       0.00002576 Ry

     iteration #232     ecut=    40.00 Ry     beta= 0.50
     Davidson diagonalization with overlap
     ethr =  9.46E-09,  avg # of iterations =  1.0

     total cpu time spent up to now is     1873.9 secs

     total energy              =     -90.80980539 Ry
     Harris-Foulkes estimate   =     -90.80979491 Ry
     estimated scf accuracy    <       0.00002560 Ry

     iteration #233     ecut=    40.00 Ry     beta= 0.50
     Davidson diagonalization with overlap
     ethr =  9.46E-09,  avg # of iterations =  2.0

     total cpu time spent up to now is     1884.5 secs

     total energy              =     -90.80979022 Ry
     Harris-Foulkes estimate   =     -90.80980528 Ry
     estimated scf accuracy    <       0.00003703 Ry

     iteration #234     ecut=    40.00 Ry     beta= 0.50
     Davidson diagonalization with overlap
     ethr =  9.46E-09,  avg # of iterations =  2.0

     total cpu time spent up to now is     1895.3 secs

     total energy              =     -90.80978928 Ry
     Harris-Foulkes estimate   =     -90.80979019 Ry
     estimated scf accuracy    <       0.00002304 Ry

     iteration #235     ecut=    40.00 Ry     beta= 0.50
     Davidson diagonalization with overlap
     ethr =  9.46E-09,  avg # of iterations =  1.0

     total cpu time spent up to now is     1903.4 secs

     total energy              =     -90.80981090 Ry
     Harris-Foulkes estimate   =     -90.80978928 Ry
     estimated scf accuracy    <       0.00002271 Ry

     iteration #236     ecut=    40.00 Ry     beta= 0.50
     Davidson diagonalization with overlap
     ethr =  9.46E-09,  avg # of iterations =  2.1

     total cpu time spent up to now is     1914.9 secs

     total energy              =     -90.80978924 Ry
     Harris-Foulkes estimate   =     -90.80980977 Ry
     estimated scf accuracy    <       0.00004404 Ry

     iteration #237     ecut=    40.00 Ry     beta= 0.50
     Davidson diagonalization with overlap
     ethr =  9.46E-09,  avg # of iterations =  2.1

     total cpu time spent up to now is     1926.7 secs

     total energy              =     -90.80980360 Ry
     Harris-Foulkes estimate   =     -90.80978973 Ry
     estimated scf accuracy    <       0.00002285 Ry

     iteration #238     ecut=    40.00 Ry     beta= 0.50
     Davidson diagonalization with overlap
     ethr =  9.46E-09,  avg # of iterations =  2.1

     total cpu time spent up to now is     1938.1 secs

     total energy              =     -90.80977185 Ry
     Harris-Foulkes estimate   =     -90.80980292 Ry
     estimated scf accuracy    <       0.00003396 Ry

     iteration #239     ecut=    40.00 Ry     beta= 0.50
     Davidson diagonalization with overlap
     ethr =  9.46E-09,  avg # of iterations =  3.7

     total cpu time spent up to now is     1955.1 secs

     total energy              =     -90.80974647 Ry
     Harris-Foulkes estimate   =     -90.80973922 Ry
     estimated scf accuracy    <       0.00007803 Ry

     iteration #240     ecut=    40.00 Ry     beta= 0.50
     Davidson diagonalization with overlap
     ethr =  9.46E-09,  avg # of iterations =  1.0

     total cpu time spent up to now is     1963.4 secs

     total energy              =     -90.80974597 Ry
     Harris-Foulkes estimate   =     -90.80974602 Ry
     estimated scf accuracy    <       0.00006597 Ry

     iteration #241     ecut=    40.00 Ry     beta= 0.50
     Davidson diagonalization with overlap
     ethr =  9.46E-09,  avg # of iterations =  1.0

     total cpu time spent up to now is     1971.6 secs

     total energy              =     -90.80975063 Ry
     Harris-Foulkes estimate   =     -90.80974598 Ry
     estimated scf accuracy    <       0.00006615 Ry

     iteration #242     ecut=    40.00 Ry     beta= 0.50
     Davidson diagonalization with overlap
     ethr =  9.46E-09,  avg # of iterations =  1.0

     total cpu time spent up to now is     1980.0 secs

     total energy              =     -90.80978894 Ry
     Harris-Foulkes estimate   =     -90.80975041 Ry
     estimated scf accuracy    <       0.00005854 Ry

     iteration #243     ecut=    40.00 Ry     beta= 0.50
     Davidson diagonalization with overlap
     ethr =  9.46E-09,  avg # of iterations =  3.1

     total cpu time spent up to now is     1994.6 secs

     total energy              =     -90.80980588 Ry
     Harris-Foulkes estimate   =     -90.80977700 Ry
     estimated scf accuracy    <       0.00002443 Ry

     iteration #244     ecut=    40.00 Ry     beta= 0.50
     Davidson diagonalization with overlap
     ethr =  9.46E-09,  avg # of iterations =  3.5

     total cpu time spent up to now is     2010.6 secs

     total energy              =     -90.80982356 Ry
     Harris-Foulkes estimate   =     -90.80979969 Ry
     estimated scf accuracy    <       0.00003014 Ry

     iteration #245     ecut=    40.00 Ry     beta= 0.50
     Davidson diagonalization with overlap
     ethr =  9.46E-09,  avg # of iterations =  2.3

     total cpu time spent up to now is     2023.3 secs

     total energy              =     -90.80979159 Ry
     Harris-Foulkes estimate   =     -90.80982505 Ry
     estimated scf accuracy    <       0.00007576 Ry

     iteration #246     ecut=    40.00 Ry     beta= 0.50
     Davidson diagonalization with overlap
     ethr =  9.46E-09,  avg # of iterations =  2.4

     total cpu time spent up to now is     2036.9 secs

     total energy              =     -90.80978414 Ry
     Harris-Foulkes estimate   =     -90.80979548 Ry
     estimated scf accuracy    <       0.00002620 Ry

     iteration #247     ecut=    40.00 Ry     beta= 0.50
     Davidson diagonalization with overlap
     ethr =  9.46E-09,  avg # of iterations =  2.1

     total cpu time spent up to now is     2048.4 secs

     total energy              =     -90.80976881 Ry
     Harris-Foulkes estimate   =     -90.80978314 Ry
     estimated scf accuracy    <       0.00002211 Ry

     iteration #248     ecut=    40.00 Ry     beta= 0.50
     Davidson diagonalization with overlap
     ethr =  9.46E-09,  avg # of iterations =  4.0

     total cpu time spent up to now is     2067.1 secs

     total energy              =     -90.80973882 Ry
     Harris-Foulkes estimate   =     -90.80967044 Ry
     estimated scf accuracy    <       0.00014191 Ry

     iteration #249     ecut=    40.00 Ry     beta= 0.50
     Davidson diagonalization with overlap
     ethr =  9.46E-09,  avg # of iterations =  2.9

     total cpu time spent up to now is     2081.5 secs

     total energy              =     -90.80973999 Ry
     Harris-Foulkes estimate   =     -90.80972841 Ry
     estimated scf accuracy    <       0.00009615 Ry

     iteration #250     ecut=    40.00 Ry     beta= 0.50
     Davidson diagonalization with overlap
     ethr =  9.46E-09,  avg # of iterations =  2.0

     total cpu time spent up to now is     2092.8 secs

     total energy              =     -90.80973911 Ry
     Harris-Foulkes estimate   =     -90.80973909 Ry
     estimated scf accuracy    <       0.00007803 Ry

     End of self-consistent calculation

     convergence NOT achieved after 250 iterations: stopping

     Writing output data file ./pp.save/
 
     init_run     :      0.93s CPU      1.69s WALL (       1 calls)
     electrons    :   2063.62s CPU   2090.47s WALL (      10 calls)
     update_pot   :      0.10s CPU      0.11s WALL (       9 calls)
     forces       :      0.21s CPU      0.21s WALL (       9 calls)
     stress       :      0.17s CPU      0.17s WALL (       9 calls)

     Called by init_run:
     wfcinit      :      0.30s CPU      0.32s WALL (       1 calls)
     potinit      :      0.13s CPU      0.13s WALL (       1 calls)
     hinit0       :      0.50s CPU      1.23s WALL (       1 calls)

     Called by electrons:
     c_bands      :   1991.82s CPU   2016.83s WALL (     351 calls)
     sum_band     :     56.07s CPU     57.03s WALL (     351 calls)
     v_of_rho     :      2.96s CPU      3.04s WALL (     361 calls)
     newd         :      0.63s CPU      0.65s WALL (     361 calls)
     mix_rho      :     11.04s CPU     11.17s WALL (     351 calls)

     Called by c_bands:
     init_us_2    :      0.18s CPU      0.20s WALL (   10094 calls)
     cegterg      :   1986.36s CPU   2009.19s WALL (    4914 calls)

     Called by sum_band:
     sum_band:bec :      0.08s CPU      0.08s WALL (    4914 calls)
     addusdens    :      0.07s CPU      0.08s WALL (     351 calls)

     Called by *egterg:
     h_psi        :    261.69s CPU    266.65s WALL (   16779 calls)
     s_psi        :      0.47s CPU      0.48s WALL (   16779 calls)
     g_psi        :      0.03s CPU      0.03s WALL (   11851 calls)
     cdiaghg      :    698.31s CPU    704.31s WALL (   16639 calls)

     Called by h_psi:
     h_psi:calbec :     21.50s CPU     21.76s WALL (   16779 calls)
     vloc_psi     :    239.46s CPU    244.16s WALL (   16779 calls)
     add_vuspsi   :      0.61s CPU      0.62s WALL (   16779 calls)

     General routines
     calbec       :     27.82s CPU     28.16s WALL (   22323 calls)
     fft          :      2.42s CPU      3.22s WALL (    4052 calls)
     ffts         :      0.28s CPU      0.30s WALL (     351 calls)
     fftw         :    286.64s CPU    292.12s WALL (  587264 calls)
     davcio       :      0.00s CPU      0.00s WALL (      32 calls)
 
     Parallel routines
     fft_scatt_xy :      2.40s CPU      2.46s WALL (  591667 calls)
     fft_scatt_yz :    275.84s CPU    281.89s WALL (  591667 calls)
 
     PWSCF        :  34m25.51s CPU  34m53.33s WALL

 
   This run was terminated on:  17:55:31   7Jul2022            

=------------------------------------------------------------------------------=
   JOB DONE.
=------------------------------------------------------------------------------=
