
     Program PWSCF v.6.5 starts on  8Jul2022 at 20:13:38 

     This program is part of the open-source Quantum ESPRESSO suite
     for quantum simulation of materials; please cite
         "P. Giannozzi et al., J. Phys.:Condens. Matter 21 395502 (2009);
         "P. Giannozzi et al., J. Phys.:Condens. Matter 29 465901 (2017);
          URL http://www.quantum-espresso.org", 
     in publications or presentations arising from this work. More details at
     http://www.quantum-espresso.org/quote

     Parallel version (MPI), running on    96 processors

     MPI processes distributed on     2 nodes
     R & G space division:  proc/nbgrp/npool/nimage =      96
     Waiting for input...
     Reading input from standard input
     Message from routine read_cards :
     DEPRECATED: no units specified in CELL_PARAMETERS card

     Current dimensions of program PWSCF are:
     Max number of different atomic species (ntypx) = 10
     Max number of k-points (npk) =  40000
     Max angular momentum in pseudopotentials (lmaxx) =  3

     Subspace diagonalization in iterative solution of the eigenvalue problem:
     one sub-group per band group will be used
     scalapack distributed-memory algorithm (size of sub-group:  9*  9 procs)

 
     Parallelization info
     --------------------
     sticks:   dense  smooth     PW     G-vecs:    dense   smooth      PW
     Min          15      15      4                  195      195      32
     Max          16      16      5                  198      198      35
     Sum        1515    1515    459                18905    18905    3141
 


     bravais-lattice index     =            0
     lattice parameter (alat)  =      13.7499  a.u.
     unit-cell volume          =     552.5157 (a.u.)^3
     number of atoms/cell      =            8
     number of atomic types    =            1
     number of electrons       =        32.00
     number of Kohn-Sham states=           20
     kinetic-energy cutoff     =      40.0000  Ry
     charge density cutoff     =     160.0000  Ry
     convergence threshold     =      1.0E-08
     mixing beta               =       0.5000
     number of iterations used =            8  plain     mixing
     Exchange-correlation=  SLA  PW   PBE  PBE
                           (   1   4   3   4   0   0   0)
     nstep                     =          250


     celldm(1)=  13.749914  celldm(2)=   0.000000  celldm(3)=   0.000000
     celldm(4)=   0.000000  celldm(5)=   0.000000  celldm(6)=   0.000000

     crystal axes: (cart. coord. in units of alat)
               a(1) = (   0.999999  -0.000880   0.001127 )  
               a(2) = (   0.006073   0.627938   0.001375 )  
               a(3) = (   0.000415   0.000524   0.338475 )  

     reciprocal axes: (cart. coord. in units 2 pi/alat)
               b(1) = (  0.999994 -0.009668 -0.001210 )  
               b(2) = (  0.001404  1.592505 -0.002465 )  
               b(3) = ( -0.003336 -0.006435  2.954443 )  


     PseudoPot. # 1 for C  read from file:
     ./C.pbe-van_bm.upf
     MD5 check sum: 1a69bf6b8db32088f5b2163dbdb77a27
     Pseudo is Ultrasoft, Zval =  4.0
     Generated by new atomic code, or converted to UPF format
     Using radial grid of  721 points,  4 beta functions with: 
                l(1) =   0
                l(2) =   0
                l(3) =   1
                l(4) =   1
     Q(r) pseudized with  8 coefficients,  rinner =    0.800   0.800   0.800


     atomic species   valence    mass     pseudopotential
        C              4.00    12.00000     C ( 1.00)

     No symmetry found



   Cartesian axes

     site n.     atom                  positions (alat units)
         1           C   tau(   1) = (   0.0206883   0.2750665   0.1378091  )
         2           C   tau(   2) = (   0.1870689   0.1697364   0.1377746  )
         3           C   tau(   3) = (   0.5237699   0.5886742   0.1390616  )
         4           C   tau(   4) = (   0.6902307   0.4834658   0.1390126  )
         5           C   tau(   5) = (   0.7724962   0.4317860   0.3082295  )
         6           C   tau(   6) = (   0.4358115   0.0128777   0.3069457  )
         7           C   tau(   7) = (   0.9388647   0.3264370   0.3081923  )
         8           C   tau(   8) = (   0.2693406   0.1180704   0.3069923  )

     number of k points=    16  Marzari-Vanderbilt smearing, width (Ry)=  0.0200
                       cart. coord. in units 2pi/alat
        k(    1) = (   0.0000000   0.0000000   0.0000000), wk =   0.0666667
        k(    2) = (  -0.0006672  -0.0012870   0.5908887), wk =   0.1333333
        k(    3) = (  -0.0013345  -0.0025740   1.1817773), wk =   0.1333333
        k(    4) = (   0.0004681   0.5308348  -0.0008218), wk =   0.1333333
        k(    5) = (  -0.0001992   0.5295478   0.5900669), wk =   0.1333333
        k(    6) = (  -0.0008664   0.5282608   1.1809555), wk =   0.1333333
        k(    7) = (   0.0018025   0.5334088  -1.1825991), wk =   0.1333333
        k(    8) = (   0.0011353   0.5321218  -0.5917105), wk =   0.1333333
        k(    9) = (  -0.4999969   0.0048341   0.0006049), wk =   0.0666667
        k(   10) = (  -0.5006642   0.0035471   0.5914936), wk =   0.1333333
        k(   11) = (  -0.5013314   0.0022601   1.1823822), wk =   0.1333333
        k(   12) = (  -0.4995289   0.5356690  -0.0002169), wk =   0.1333333
        k(   13) = (  -0.5001961   0.5343820   0.5906718), wk =   0.1333333
        k(   14) = (  -0.5008633   0.5330950   1.1815604), wk =   0.1333333
        k(   15) = (  -0.4981944   0.5382430  -1.1819943), wk =   0.1333333
        k(   16) = (  -0.4988616   0.5369560  -0.5911056), wk =   0.1333333

     Dense  grid:    18905 G-vectors     FFT dimensions: (  60,  36,  20)

     Estimated max dynamical RAM per process >       1.53 MB

     Estimated total dynamical RAM >     147.07 MB

     Initial potential from superposition of free atoms

     starting charge   31.99968, renormalised to   32.00000
     Starting wfcs are   32 randomized atomic wfcs

     total cpu time spent up to now is        0.7 secs

     Self-consistent Calculation

     iteration #  1     ecut=    40.00 Ry     beta= 0.50
     Davidson diagonalization with overlap
     ethr =  1.00E-02,  avg # of iterations =  2.3

     total cpu time spent up to now is        1.7 secs

     total energy              =     -91.11684972 Ry
     Harris-Foulkes estimate   =     -91.49737287 Ry
     estimated scf accuracy    <       0.77963100 Ry

     iteration #  2     ecut=    40.00 Ry     beta= 0.50
     Davidson diagonalization with overlap
     ethr =  2.44E-03,  avg # of iterations =  2.6

     total cpu time spent up to now is        2.4 secs

     total energy              =     -91.14613323 Ry
     Harris-Foulkes estimate   =     -91.17863664 Ry
     estimated scf accuracy    <       0.07193497 Ry

     iteration #  3     ecut=    40.00 Ry     beta= 0.50
     Davidson diagonalization with overlap
     ethr =  2.25E-04,  avg # of iterations =  3.4

     total cpu time spent up to now is        3.5 secs

     total energy              =     -91.15748993 Ry
     Harris-Foulkes estimate   =     -91.15749751 Ry
     estimated scf accuracy    <       0.00204891 Ry

     iteration #  4     ecut=    40.00 Ry     beta= 0.50
     Davidson diagonalization with overlap
     ethr =  6.40E-06,  avg # of iterations =  3.9

     total cpu time spent up to now is        4.6 secs

     total energy              =     -91.15768325 Ry
     Harris-Foulkes estimate   =     -91.15775199 Ry
     estimated scf accuracy    <       0.00016888 Ry

     iteration #  5     ecut=    40.00 Ry     beta= 0.50
     Davidson diagonalization with overlap
     ethr =  5.28E-07,  avg # of iterations =  2.2

     total cpu time spent up to now is        5.4 secs

     total energy              =     -91.15771898 Ry
     Harris-Foulkes estimate   =     -91.15772076 Ry
     estimated scf accuracy    <       0.00000551 Ry

     iteration #  6     ecut=    40.00 Ry     beta= 0.50
     Davidson diagonalization with overlap
     ethr =  1.72E-08,  avg # of iterations =  2.6

     total cpu time spent up to now is        6.2 secs

     total energy              =     -91.15771981 Ry
     Harris-Foulkes estimate   =     -91.15772020 Ry
     estimated scf accuracy    <       0.00000110 Ry

     iteration #  7     ecut=    40.00 Ry     beta= 0.50
     Davidson diagonalization with overlap
     ethr =  3.45E-09,  avg # of iterations =  2.0

     total cpu time spent up to now is        7.0 secs

     total energy              =     -91.15772001 Ry
     Harris-Foulkes estimate   =     -91.15772001 Ry
     estimated scf accuracy    <       0.00000004 Ry

     iteration #  8     ecut=    40.00 Ry     beta= 0.50
     Davidson diagonalization with overlap
     ethr =  1.11E-10,  avg # of iterations =  3.0

     total cpu time spent up to now is        8.0 secs

     End of self-consistent calculation

          k = 0.0000 0.0000 0.0000 (  2369 PWs)   bands (ev):

   -14.0712 -12.5606 -12.5606  -8.8280  -7.6557  -1.9170  -1.9170  -1.6705
    -0.9525  -0.4941  -0.4940   0.3987   0.3988   2.3540   2.5453   2.7998
     6.9118   8.8880  12.5070  12.5070

          k =-0.0007-0.0013 0.5909 (  2360 PWs)   bands (ev):

   -13.3617 -11.8681 -11.8675  -8.2243  -7.0942  -3.3874  -2.6535  -2.6527
    -1.1449  -1.1446  -0.8427   0.0999   0.3138   0.3205   1.1233   3.6701
     6.7042   9.8010  11.4816  11.4901

          k =-0.0013-0.0026 1.1818 (  2368 PWs)   bands (ev):

   -11.2732  -9.8482  -9.8471  -8.0580  -6.4271  -6.4168  -6.4156  -4.6300
    -3.5181  -1.8913  -0.9933  -0.9930   1.5120   2.4208   2.4322   4.7192
     6.2179   7.9803   7.9960  10.1748

          k = 0.0005 0.5308-0.0008 (  2370 PWs)   bands (ev):

   -13.8674 -13.3342 -11.4885 -10.0785  -6.2114  -4.1383  -1.9121  -1.7550
    -0.7866  -0.3162   0.2153   1.2167   1.2523   1.8807   2.0243   2.3204
     8.2297  10.6472  10.6504  12.2553

          k =-0.0002 0.5295 0.5901 (  2367 PWs)   bands (ev):

   -13.1615 -12.6346 -10.8092  -9.4298  -5.7623  -4.0298  -3.1706  -2.4749
    -1.5406  -1.0683  -0.9116  -0.4867   0.3031   1.0707   1.9792   3.1088
     7.8285   9.7006  11.4985  13.1245

          k =-0.0009 0.5283 1.1810 (  2346 PWs)   bands (ev):

   -11.0840 -10.5804  -8.8868  -8.0773  -7.1340  -7.0950  -5.4531  -4.2991
    -3.6399  -2.1490  -1.2641  -0.6903   1.3226   1.4518   3.5002   4.2047
     6.6649   7.1655   9.2365   9.9869

          k = 0.0018 0.5334-1.1826 (  2345 PWs)   bands (ev):

   -11.0827 -10.5805  -8.8869  -8.0786  -7.1348  -7.0948  -5.4529  -4.2982
    -3.6403  -2.1489  -1.2637  -0.6903   1.3097   1.4530   3.5016   4.2171
     6.6762   7.1651   9.2330   9.9754

          k = 0.0011 0.5321-0.5917 (  2367 PWs)   bands (ev):

   -13.1608 -12.6347 -10.8093  -9.4303  -5.7628  -4.0297  -3.1714  -2.4749
    -1.5405  -1.0756  -0.9107  -0.4859   0.3030   1.0708   1.9808   3.1142
     7.8361   9.6985  11.5299  13.1221

          k =-0.5000 0.0048 0.0006 (  2372 PWs)   bands (ev):

   -13.6876 -13.6874 -10.7605 -10.7603  -5.1927  -5.1926  -1.4164  -1.4155
    -0.5935  -0.5933   1.1268   1.1271   1.2488   1.2490   1.6755   1.6757
     9.2141   9.2148   9.9226   9.9245

          k =-0.5007 0.0035 0.5915 (  2358 PWs)   bands (ev):

   -12.9820 -12.9814 -10.0976 -10.0973  -4.8756  -4.8751  -2.9055  -2.9051
    -0.9802  -0.9799  -0.5944  -0.5882   0.7951   0.7954   2.0435   2.0465
     8.7605   8.7674  10.8049  10.8259

          k =-0.5013 0.0023 1.1824 (  2351 PWs)   bands (ev):

   -10.9072 -10.9063  -8.3549  -8.3542  -7.2795  -7.2788  -4.8535  -4.8531
    -2.8815  -2.8810  -0.8948  -0.8946   1.7055   1.7159   3.6938   3.7008
     6.9122   6.9227   9.3502   9.3577

          k =-0.4995 0.5357-0.0002 (  2367 PWs)   bands (ev):

   -13.9551 -13.0440 -12.0280  -9.3415  -7.1667  -3.0062  -2.3885  -0.9017
    -0.8223  -0.5811  -0.0252   0.0069   0.8227   2.2637   2.3721   2.9711
     7.8337  10.4728  11.4035  12.2985

          k =-0.5002 0.5344 0.5907 (  2365 PWs)   bands (ev):

   -13.2500 -12.3443 -11.3424  -8.7151  -6.6348  -3.3157  -3.2814  -2.0786
    -1.8792  -1.5321  -0.3750  -0.0836   0.2248   0.7799   1.1322   3.7880
     7.3189  10.5814  11.3634  12.2533

          k =-0.5009 0.5331 1.1816 (  2353 PWs)   bands (ev):

   -11.1740 -10.2942  -9.3641  -8.0127  -6.8298  -6.7168  -5.9454  -4.3333
    -3.7869  -1.6930  -1.4784  -0.7115   0.9212   2.3580   2.8088   4.2909
     6.6262   7.7407   8.4519  10.3586

          k =-0.4982 0.5382-1.1820 (  2357 PWs)   bands (ev):

   -11.1731 -10.2935  -9.3651  -8.0137  -6.8305  -6.7174  -5.9442  -4.3338
    -3.7864  -1.6929  -1.4785  -0.7113   0.9128   2.3500   2.8176   4.3003
     6.6329   7.7509   8.4392  10.3502

          k =-0.4989 0.5370-0.5911 (  2363 PWs)   bands (ev):

   -13.2495 -12.3439 -11.3430  -8.7156  -6.6351  -3.3163  -3.2818  -2.0778
    -1.8793  -1.5366  -0.3750  -0.0835   0.2203   0.7853   1.1323   3.7923
     7.3241  10.5861  11.3779  12.2457

     the Fermi energy is     4.9431 ev

!    total energy              =     -91.15772002 Ry
     Harris-Foulkes estimate   =     -91.15772002 Ry
     estimated scf accuracy    <          3.5E-09 Ry

     The total energy is the sum of the following terms:

     one-electron contribution =     -47.29617853 Ry
     hartree contribution      =      37.56406590 Ry
     xc contribution           =     -27.96641653 Ry
     ewald contribution        =     -53.45961239 Ry
     smearing contrib. (-TS)   =       0.00042154 Ry

     convergence has been achieved in   8 iterations

     Forces acting on atoms (cartesian axes, Ry/au):

     atom    1 type  1   force =     0.02020535   -0.01267920   -0.00001440
     atom    2 type  1   force =    -0.02021185    0.01274018    0.00000046
     atom    3 type  1   force =     0.02025762   -0.01272880   -0.00002450
     atom    4 type  1   force =    -0.02025395    0.01266806    0.00003402
     atom    5 type  1   force =     0.02018922   -0.01273037    0.00000152
     atom    6 type  1   force =    -0.02026149    0.01272150    0.00001676
     atom    7 type  1   force =    -0.02019822    0.01269091    0.00002311
     atom    8 type  1   force =     0.02027331   -0.01268228   -0.00003697

     Total force =     0.067571     Total SCF correction =     0.000095


     Computing stress (Cartesian axis) and pressure

          total   stress  (Ry/bohr**3)                   (kbar)     P=        1.43
  -0.00017570   0.00010033   0.00000015          -25.85       14.76        0.02
   0.00010033  -0.00007416  -0.00000002           14.76      -10.91       -0.00
   0.00000015  -0.00000002   0.00027904            0.02       -0.00       41.05


     BFGS Geometry Optimization

     number of scf cycles    =   1
     number of bfgs steps    =   0

     enthalpy new            =     -91.1576824565 Ry

     new trust radius        =       0.0327867278 bohr
     new conv_thr            =       0.0000000100 Ry

     new unit-cell volume =    552.89282 a.u.^3 (    81.93026 Ang^3 )
     density =      1.94570 g/cm^3

CELL_PARAMETERS (bohr)
  13.689449761   0.022410684   0.015661097
   0.104789669   8.618286745   0.019028760
   0.005710949   0.007199117   4.686458044

ATOMIC_POSITIONS (crystal)
C             0.0193403965        0.4362675710        0.4053079372
C             0.1837810891        0.2717024938        0.4053300401
C             0.5193892342        0.9363868337        0.4053097779
C             0.6839020744        0.7720131303        0.4052972949
C             0.7694212586        0.6864736403        0.9052923870
C             0.4338304905        0.0218343219        0.9053195640
C             0.9338521130        0.5218787846        0.9053079264
C             0.2693093437        0.1861822245        0.9053260725



     Writing output data file ./pp.save/
     NEW-OLD atomic charge density approx. for the potential
     extrapolated charge   32.02183, renormalised to   32.00000

     total cpu time spent up to now is        8.2 secs

     Self-consistent Calculation

     iteration #  1     ecut=    40.00 Ry     beta= 0.50
     Davidson diagonalization with overlap
     ethr =  1.00E-06,  avg # of iterations =  5.7

     total cpu time spent up to now is       10.2 secs

     total energy              =     -91.15615382 Ry
     Harris-Foulkes estimate   =     -91.13081974 Ry
     estimated scf accuracy    <       0.00198520 Ry

     iteration #  2     ecut=    40.00 Ry     beta= 0.50
     Davidson diagonalization with overlap
     ethr =  6.20E-06,  avg # of iterations =  1.0

     total cpu time spent up to now is       10.7 secs

     total energy              =     -91.15615024 Ry
     Harris-Foulkes estimate   =     -91.15628430 Ry
     estimated scf accuracy    <       0.00024561 Ry

     iteration #  3     ecut=    40.00 Ry     beta= 0.50
     Davidson diagonalization with overlap
     ethr =  7.68E-07,  avg # of iterations =  2.0

     total cpu time spent up to now is       11.6 secs

     total energy              =     -91.15619885 Ry
     Harris-Foulkes estimate   =     -91.15619942 Ry
     estimated scf accuracy    <       0.00000454 Ry

     iteration #  4     ecut=    40.00 Ry     beta= 0.50
     Davidson diagonalization with overlap
     ethr =  1.42E-08,  avg # of iterations =  2.2

     total cpu time spent up to now is       12.4 secs

     total energy              =     -91.15619978 Ry
     Harris-Foulkes estimate   =     -91.15619969 Ry
     estimated scf accuracy    <       0.00000113 Ry

     iteration #  5     ecut=    40.00 Ry     beta= 0.50
     Davidson diagonalization with overlap
     ethr =  3.52E-09,  avg # of iterations =  2.0

     total cpu time spent up to now is       13.2 secs

     total energy              =     -91.15619979 Ry
     Harris-Foulkes estimate   =     -91.15619996 Ry
     estimated scf accuracy    <       0.00000047 Ry

     iteration #  6     ecut=    40.00 Ry     beta= 0.50
     Davidson diagonalization with overlap
     ethr =  1.46E-09,  avg # of iterations =  2.0

     total cpu time spent up to now is       14.0 secs

     End of self-consistent calculation

          k = 0.0000 0.0000 0.0000 (  2369 PWs)   bands (ev):

   -14.0682 -12.5443 -12.5442  -8.5927  -7.8997  -2.0316  -2.0316  -1.6689
    -0.9265  -0.4516  -0.4516   0.5197   0.5197   2.1848   2.7019   3.0837
     6.6226   8.8873  12.5887  12.5888

          k =-0.0007-0.0013 0.5868 (  2360 PWs)   bands (ev):

   -13.3668 -11.8598 -11.8591  -7.9857  -7.3795  -3.3358  -2.7685  -2.7676
    -1.0345  -1.0344  -0.8626   0.3299   0.3366   0.4062   0.7812   3.9389
     6.3992   9.7813  11.4048  11.4132

          k =-0.0013-0.0026 1.1736 (  2368 PWs)   bands (ev):

   -11.3064  -9.8789  -9.8778  -8.1914  -6.3940  -6.3928  -6.1782  -4.7574
    -3.2492  -2.1626  -1.0003  -1.0002   1.4220   2.3321   2.3434   4.5004
     6.4406   8.0488   8.0647  10.3194

          k =-0.0009 0.5318-0.0008 (  2370 PWs)   bands (ev):

   -13.8628 -13.3253 -11.4596 -10.0205  -6.2863  -4.2112  -1.9071  -1.7382
    -0.7505  -0.2493   0.0194   1.3101   1.4538   1.5786   2.3215   2.5045
     8.0237  10.5070  10.6549  12.2896

          k =-0.0015 0.5305 0.5860 (  2367 PWs)   bands (ev):

   -13.1651 -12.6337 -10.7885  -9.3804  -5.8769  -4.1661  -3.0991  -2.3513
    -1.5768  -1.0845  -0.9166  -0.4104   0.3278   0.9670   2.0356   3.2506
     7.6426   9.5907  11.4777  13.0710

          k =-0.0022 0.5292 1.1728 (  2346 PWs)   bands (ev):

   -11.1161 -10.6105  -8.9379  -8.2204  -7.0516  -6.9696  -5.4101  -4.1917
    -3.6720  -2.1518  -1.3720  -0.7274   1.2365   1.3707   3.3740   4.0383
     6.8377   7.2865   9.3184  10.1113

          k = 0.0005 0.5344-1.1744 (  2345 PWs)   bands (ev):

   -11.1148 -10.6106  -8.9381  -8.2218  -7.0516  -6.9703  -5.4098  -4.1908
    -3.6726  -2.1516  -1.3715  -0.7276   1.2237   1.3718   3.3754   4.0505
     6.8492   7.2861   9.3151  10.0994

          k =-0.0002 0.5331-0.5876 (  2367 PWs)   bands (ev):

   -13.1643 -12.6338 -10.7887  -9.3809  -5.8773  -4.1661  -3.1000  -2.3511
    -1.5764  -1.0918  -0.9157  -0.4099   0.3275   0.9674   2.0372   3.2562
     7.6499   9.5885  11.5088  13.0687

          k =-0.5022 0.0061 0.0006 (  2372 PWs)   bands (ev):

   -13.6812 -13.6811 -10.7212 -10.7210  -5.2601  -5.2600  -1.4055  -1.4046
    -0.5452  -0.5450   0.8790   0.8792   1.3679   1.3683   1.9257   1.9261
     9.0846   9.0848   9.9313   9.9331

          k =-0.5029 0.0048 0.5874 (  2358 PWs)   bands (ev):

   -12.9838 -12.9832 -10.0668 -10.0665  -4.9959  -4.9954  -2.8096  -2.8093
    -0.9695  -0.9690  -0.6061  -0.5999   0.7664   0.7667   2.1273   2.1303
     8.6310   8.6376  10.7948  10.8156

          k =-0.5036 0.0035 1.1742 (  2351 PWs)   bands (ev):

   -10.9383 -10.9374  -8.4550  -8.4544  -7.1779  -7.1770  -4.7864  -4.7858
    -2.8938  -2.8935  -0.9594  -0.9592   1.6170   1.6274   3.5775   3.5847
     7.0166   7.0268   9.4531   9.4608

          k =-0.5031 0.5379-0.0002 (  2367 PWs)   bands (ev):

   -13.9515 -13.0320 -12.0064  -9.2344  -7.2834  -3.0962  -2.3875  -0.9727
    -0.8726  -0.5502   0.0362   0.0970   0.9810   2.0282   2.5972   3.2194
     7.5484  10.4921  11.3426  12.3005

          k =-0.5038 0.5366 0.5866 (  2365 PWs)   bands (ev):

   -13.2545 -12.3403 -11.3290  -8.6155  -6.7844  -3.4198  -3.2590  -2.1566
    -1.7490  -1.5513  -0.3029   0.0990   0.2299   0.8130   0.9156   3.9992
     7.0599  10.4982  11.3644  12.2136

          k =-0.5044 0.5354 1.1734 (  2353 PWs)   bands (ev):

   -11.2066 -10.3238  -9.4010  -8.1532  -6.8035  -6.5119  -5.9164  -4.4082
    -3.6026  -1.8793  -1.4807  -0.7303   0.8363   2.2666   2.7207   4.0936
     6.8430   7.8096   8.5368  10.5004

          k =-0.5018 0.5405-1.1738 (  2357 PWs)   bands (ev):

   -11.2057 -10.3231  -9.4019  -8.1542  -6.8040  -6.5127  -5.9154  -4.4085
    -3.6019  -1.8794  -1.4810  -0.7299   0.8281   2.2587   2.7293   4.1029
     6.8498   7.8204   8.5236  10.4919

          k =-0.5024 0.5392-0.5870 (  2363 PWs)   bands (ev):

   -13.2540 -12.3399 -11.3295  -8.6159  -6.7846  -3.4200  -3.2595  -2.1560
    -1.7493  -1.5558  -0.3025   0.0993   0.2254   0.8184   0.9154   4.0038
     7.0646  10.5030  11.3784  12.2062

     the Fermi energy is     4.6879 ev

!    total energy              =     -91.15619987 Ry
     Harris-Foulkes estimate   =     -91.15619987 Ry
     estimated scf accuracy    <          4.5E-09 Ry

     The total energy is the sum of the following terms:

     one-electron contribution =     -47.20964904 Ry
     hartree contribution      =      37.51199030 Ry
     xc contribution           =     -27.96071031 Ry
     ewald contribution        =     -53.49858289 Ry
     smearing contrib. (-TS)   =       0.00075208 Ry

     convergence has been achieved in   6 iterations

     Forces acting on atoms (cartesian axes, Ry/au):

     atom    1 type  1   force =    -0.03378435    0.02139161    0.00001877
     atom    2 type  1   force =     0.03385261   -0.02135802   -0.00003156
     atom    3 type  1   force =    -0.03387321    0.02136819    0.00001971
     atom    4 type  1   force =     0.03380782   -0.02140589   -0.00000334
     atom    5 type  1   force =    -0.03382250    0.02134349    0.00002998
     atom    6 type  1   force =     0.03389709   -0.02138253   -0.00002608
     atom    7 type  1   force =     0.03375833   -0.02136843   -0.00001195
     atom    8 type  1   force =    -0.03383580    0.02141159    0.00000447

     Total force =     0.113188     Total SCF correction =     0.000053


     Computing stress (Cartesian axis) and pressure

          total   stress  (Ry/bohr**3)                   (kbar)     P=       -0.12
   0.00020832  -0.00014604  -0.00000072           30.65      -21.48       -0.11
  -0.00014604   0.00008062  -0.00000092          -21.48       11.86       -0.13
  -0.00000072  -0.00000092  -0.00029134           -0.11       -0.13      -42.86


     number of scf cycles    =   2
     number of bfgs steps    =   1

     enthalpy old            =     -91.1576824565 Ry
     enthalpy new            =     -91.1561622852 Ry

     CASE: enthalpy_new > enthalpy_old

     new trust radius        =       0.0131681834 bohr
     new conv_thr            =       0.0000000100 Ry

     new unit-cell volume =    552.67372 a.u.^3 (    81.89779 Ang^3 )
     density =      1.94647 g/cm^3

CELL_PARAMETERS (bohr)
  13.725460293   0.001852485   0.015565131
   0.092107299   8.627706786   0.018952057
   0.005704427   0.007199643   4.667122613

ATOMIC_POSITIONS (crystal)
C             0.0184597078        0.4371411306        0.4053091660
C             0.1846620843        0.2708247256        0.4053306119
C             0.5185062594        0.9372638110        0.4053122930
C             0.6847848654        0.7711403443        0.4052935450
C             0.7685412477        0.6873507328        0.9052915607
C             0.4347136294        0.0209578476        0.9053180366
C             0.9347324982        0.5210044174        0.9053055874
C             0.2684257079        0.1870559905        0.9053301993



     Writing output data file ./pp.save/
     NEW-OLD atomic charge density approx. for the potential
     extrapolated charge   31.98731, renormalised to   32.00000

     total cpu time spent up to now is       14.0 secs

     Self-consistent Calculation

     iteration #  1     ecut=    40.00 Ry     beta= 0.50
     Davidson diagonalization with overlap
     ethr =  1.00E-06,  avg # of iterations =  5.0

     total cpu time spent up to now is       15.8 secs

     total energy              =     -91.15901892 Ry
     Harris-Foulkes estimate   =     -91.17470136 Ry
     estimated scf accuracy    <       0.00071401 Ry

     iteration #  2     ecut=    40.00 Ry     beta= 0.50
     Davidson diagonalization with overlap
     ethr =  2.23E-06,  avg # of iterations =  1.1

     total cpu time spent up to now is       16.4 secs

     total energy              =     -91.15901970 Ry
     Harris-Foulkes estimate   =     -91.15906738 Ry
     estimated scf accuracy    <       0.00008789 Ry

     iteration #  3     ecut=    40.00 Ry     beta= 0.50
     Davidson diagonalization with overlap
     ethr =  2.75E-07,  avg # of iterations =  2.0

     total cpu time spent up to now is       17.3 secs

     total energy              =     -91.15903723 Ry
     Harris-Foulkes estimate   =     -91.15903739 Ry
     estimated scf accuracy    <       0.00000162 Ry

     iteration #  4     ecut=    40.00 Ry     beta= 0.50
     Davidson diagonalization with overlap
     ethr =  5.07E-09,  avg # of iterations =  2.3

     total cpu time spent up to now is       18.3 secs

     total energy              =     -91.15903759 Ry
     Harris-Foulkes estimate   =     -91.15903754 Ry
     estimated scf accuracy    <       0.00000039 Ry

     iteration #  5     ecut=    40.00 Ry     beta= 0.50
     Davidson diagonalization with overlap
     ethr =  1.23E-09,  avg # of iterations =  1.1

     total cpu time spent up to now is       18.9 secs

     total energy              =     -91.15903761 Ry
     Harris-Foulkes estimate   =     -91.15903761 Ry
     estimated scf accuracy    <       0.00000002 Ry

     iteration #  6     ecut=    40.00 Ry     beta= 0.50
     Davidson diagonalization with overlap
     ethr =  4.84E-11,  avg # of iterations =  2.9

     total cpu time spent up to now is       20.1 secs

     End of self-consistent calculation

          k = 0.0000 0.0000 0.0000 (  2369 PWs)   bands (ev):

   -14.0689 -12.5524 -12.5524  -8.7330  -7.7529  -1.9628  -1.9628  -1.6685
    -0.9392  -0.4753  -0.4753   0.4504   0.4504   2.3985   2.4948   2.9142
     6.7956   8.8875  12.5397  12.5397

          k =-0.0007-0.0013 0.5892 (  2360 PWs)   bands (ev):

   -13.3625 -11.8629 -11.8623  -8.1279  -7.2081  -3.3650  -2.6970  -2.6962
    -1.1019  -1.1017  -0.8494   0.2240   0.3220   0.3287   0.9840   3.7784
     6.5814   9.7932  11.4494  11.4579

          k =-0.0013-0.0026 1.1785 (  2368 PWs)   bands (ev):

   -11.2847  -9.8575  -9.8564  -8.1076  -6.4064  -6.4052  -6.3265  -4.6841
    -3.4092  -2.0019  -0.9988  -0.9985   1.4769   2.3867   2.3981   4.6317
     6.3073   8.0069   8.0227  10.2321

          k =-0.0001 0.5312-0.0008 (  2370 PWs)   bands (ev):

   -13.8644 -13.3293 -11.4747 -10.0514  -6.2439  -4.1681  -1.9088  -1.7469
    -0.7693  -0.2863   0.1369   1.2566   1.3361   1.7585   2.1456   2.3968
     8.1446  10.5883  10.6527  12.2696

          k =-0.0007 0.5299 0.5884 (  2367 PWs)   bands (ev):

   -13.1616 -12.6327 -10.7983  -9.4054  -5.8116  -4.0858  -3.1402  -2.4234
    -1.5476  -1.0735  -0.9123  -0.4424   0.3065   1.0154   2.0045   3.1690
     7.7504   9.6536  11.4909  13.1026

          k =-0.0014 0.5287 1.1776 (  2346 PWs)   bands (ev):

   -11.0950 -10.5902  -8.9024  -8.1306  -7.0782  -7.0669  -5.4332  -4.2511
    -3.6562  -2.1527  -1.3132  -0.7088   1.2891   1.4204   3.4515   4.1398
     6.7328   7.2127   9.2690  10.0363

          k = 0.0013 0.5338-1.1793 (  2345 PWs)   bands (ev):

   -11.0937 -10.5904  -8.9026  -8.1320  -7.0781  -7.0677  -5.4329  -4.2502
    -3.6568  -2.1526  -1.3127  -0.7089   1.2762   1.4215   3.4529   4.1522
     6.7441   7.2123   9.2655  10.0246

          k = 0.0006 0.5325-0.5900 (  2367 PWs)   bands (ev):

   -13.1609 -12.6328 -10.7985  -9.4059  -5.8120  -4.0858  -3.1410  -2.4233
    -1.5474  -1.0809  -0.9114  -0.4417   0.3064   1.0156   2.0061   3.1746
     7.7579   9.6514  11.5222  13.1002

          k =-0.5009 0.0053 0.0006 (  2372 PWs)   bands (ev):

   -13.6838 -13.6837 -10.7418 -10.7418  -5.2210  -5.2210  -1.4106  -1.4096
    -0.5711  -0.5710   1.0273   1.0274   1.2990   1.2992   1.7786   1.7787
     9.1604   9.1608   9.9264   9.9283

          k =-0.5016 0.0041 0.5898 (  2358 PWs)   bands (ev):

   -12.9813 -12.9808 -10.0819 -10.0817  -4.9259  -4.9254  -2.8652  -2.8648
    -0.9655  -0.9652  -0.5977  -0.5915   0.7740   0.7741   2.0798   2.0828
     8.7059   8.7127  10.8012  10.8222

          k =-0.5022 0.0028 1.1791 (  2351 PWs)   bands (ev):

   -10.9177 -10.9167  -8.3892  -8.3886  -7.2399  -7.2391  -4.8228  -4.8224
    -2.8894  -2.8889  -0.9252  -0.9251   1.6711   1.6816   3.6496   3.6567
     6.9521   6.9625   9.3910   9.3985

          k =-0.5010 0.5366-0.0002 (  2367 PWs)   bands (ev):

   -13.9525 -13.0378 -12.0175  -9.2928  -7.2178  -3.0425  -2.3869  -0.8872
    -0.8823  -0.5669   0.0013   0.0461   0.8893   2.2322   2.3990   3.0726
     7.7173  10.4810  11.3785  12.3003

          k =-0.5016 0.5353 0.5890 (  2365 PWs)   bands (ev):

   -13.2505 -12.3411 -11.3349  -8.6682  -6.7005  -3.3368  -3.2912  -2.1047
    -1.8260  -1.5387  -0.3499   0.0045   0.2285   0.7951   1.0298   3.8757
     7.2118  10.5463  11.3644  12.2352

          k =-0.5023 0.5340 1.1782 (  2353 PWs)   bands (ev):

   -11.1852 -10.3036  -9.3751  -8.0651  -6.8188  -6.6328  -5.9318  -4.3674
    -3.7078  -1.7738  -1.4818  -0.7220   0.8880   2.3228   2.7752   4.2125
     6.7128   7.7671   8.4852  10.4148

          k =-0.4996 0.5392-1.1787 (  2357 PWs)   bands (ev):

   -11.1843 -10.3029  -9.3761  -8.0661  -6.8195  -6.6335  -5.9307  -4.3678
    -3.7072  -1.7738  -1.4820  -0.7218   0.8797   2.3148   2.7840   4.2218
     6.7195   7.7776   8.4723  10.4065

          k =-0.5003 0.5379-0.5894 (  2363 PWs)   bands (ev):

   -13.2500 -12.3407 -11.3354  -8.6687  -6.7007  -3.3371  -3.2918  -2.1040
    -1.8262  -1.5432  -0.3497   0.0047   0.2240   0.8005   1.0299   3.8801
     7.2168  10.5510  11.3788  12.2276

     the Fermi energy is     4.8495 ev

!    total energy              =     -91.15903761 Ry
     Harris-Foulkes estimate   =     -91.15903761 Ry
     estimated scf accuracy    <          1.4E-09 Ry

     The total energy is the sum of the following terms:

     one-electron contribution =     -47.24817560 Ry
     hartree contribution      =      37.53656647 Ry
     xc contribution           =     -27.96275026 Ry
     ewald contribution        =     -53.48514818 Ry
     smearing contrib. (-TS)   =       0.00046996 Ry

     convergence has been achieved in   6 iterations

     Forces acting on atoms (cartesian axes, Ry/au):

     atom    1 type  1   force =    -0.00094210    0.00066849   -0.00000077
     atom    2 type  1   force =     0.00096575   -0.00061925   -0.00001303
     atom    3 type  1   force =    -0.00094897    0.00063043   -0.00000619
     atom    4 type  1   force =     0.00092896   -0.00068296    0.00001900
     atom    5 type  1   force =    -0.00096939    0.00062102    0.00001301
     atom    6 type  1   force =     0.00095137   -0.00063950   -0.00000095
     atom    7 type  1   force =     0.00094316   -0.00065552    0.00000864
     atom    8 type  1   force =    -0.00092878    0.00067729   -0.00001970

     Total force =     0.003250     Total SCF correction =     0.000047


     Computing stress (Cartesian axis) and pressure

          total   stress  (Ry/bohr**3)                   (kbar)     P=       -0.43
  -0.00003340   0.00000902  -0.00000019           -4.91        1.33       -0.03
   0.00000902  -0.00001723  -0.00000038            1.33       -2.53       -0.06
  -0.00000019  -0.00000038   0.00004188           -0.03       -0.06        6.16


     number of scf cycles    =   3
     number of bfgs steps    =   1

     enthalpy old            =     -91.1576824565 Ry
     enthalpy new            =     -91.1590000421 Ry

     CASE: enthalpy_new < enthalpy_old

     new trust radius        =       0.0050274172 bohr
     new conv_thr            =            1.0E-10 Ry

     new unit-cell volume =    552.54329 a.u.^3 (    81.87847 Ang^3 )
     density =      1.94693 g/cm^3

CELL_PARAMETERS (bohr)
  13.713643437   0.005095478   0.015514618
   0.094070157   8.623904856   0.018889977
   0.005678538   0.007153764   4.672112603

ATOMIC_POSITIONS (crystal)
C             0.0183941127        0.4372151889        0.4053089069
C             0.1847293825        0.2707564521        0.4053278283
C             0.5184401952        0.9373334034        0.4053108673
C             0.6848494948        0.7710645834        0.4052977948
C             0.7684736768        0.6874192163        0.9052943414
C             0.4347798751        0.0208871942        0.9053179051
C             0.9347981633        0.5209318779        0.9053075571
C             0.2683610996        0.1871310838        0.9053257991



     Writing output data file ./pp.save/
     NEW-OLD atomic charge density approx. for the potential
     extrapolated charge   31.99245, renormalised to   32.00000

     total cpu time spent up to now is       20.2 secs

     Self-consistent Calculation

     iteration #  1     ecut=    40.00 Ry     beta= 0.50
     Davidson diagonalization with overlap
     ethr =  1.00E-06,  avg # of iterations =  2.0

     Threshold (ethr) on eigenvalues was too large:
     Diagonalizing with lowered threshold

     Davidson diagonalization with overlap
     ethr =  4.40E-09,  avg # of iterations =  3.8

     total cpu time spent up to now is       22.6 secs

     total energy              =     -91.15906055 Ry
     Harris-Foulkes estimate   =     -91.16817086 Ry
     estimated scf accuracy    <       0.00000133 Ry

     iteration #  2     ecut=    40.00 Ry     beta= 0.50
     Davidson diagonalization with overlap
     ethr =  4.16E-09,  avg # of iterations =  2.4

     total cpu time spent up to now is       23.9 secs

     total energy              =     -91.15906211 Ry
     Harris-Foulkes estimate   =     -91.15906232 Ry
     estimated scf accuracy    <       0.00000072 Ry

     iteration #  3     ecut=    40.00 Ry     beta= 0.50
     Davidson diagonalization with overlap
     ethr =  2.26E-09,  avg # of iterations =  1.0

     total cpu time spent up to now is       24.7 secs

     total energy              =     -91.15906205 Ry
     Harris-Foulkes estimate   =     -91.15906214 Ry
     estimated scf accuracy    <       0.00000022 Ry

     iteration #  4     ecut=    40.00 Ry     beta= 0.50
     Davidson diagonalization with overlap
     ethr =  7.03E-10,  avg # of iterations =  2.0

     total cpu time spent up to now is       25.9 secs

     total energy              =     -91.15906209 Ry
     Harris-Foulkes estimate   =     -91.15906209 Ry
     estimated scf accuracy    <       0.00000002 Ry

     iteration #  5     ecut=    40.00 Ry     beta= 0.50
     Davidson diagonalization with overlap
     ethr =  5.16E-11,  avg # of iterations =  2.0

     total cpu time spent up to now is       26.9 secs

     total energy              =     -91.15906209 Ry
     Harris-Foulkes estimate   =     -91.15906209 Ry
     estimated scf accuracy    <          3.0E-09 Ry

     iteration #  6     ecut=    40.00 Ry     beta= 0.50
     Davidson diagonalization with overlap
     ethr =  9.38E-12,  avg # of iterations =  2.0

     total cpu time spent up to now is       28.2 secs

     total energy              =     -91.15906209 Ry
     Harris-Foulkes estimate   =     -91.15906209 Ry
     estimated scf accuracy    <          1.1E-10 Ry

     iteration #  7     ecut=    40.00 Ry     beta= 0.50
     Davidson diagonalization with overlap
     ethr =  3.57E-13,  avg # of iterations =  2.3

     total cpu time spent up to now is       29.5 secs

     End of self-consistent calculation

          k = 0.0000 0.0000 0.0000 (  2369 PWs)   bands (ev):

   -14.0655 -12.5458 -12.5458  -8.7133  -7.7440  -1.9399  -1.9399  -1.6642
    -0.9660  -0.4694  -0.4694   0.4266   0.4266   2.4219   2.4756   2.9263
     6.8094   8.8918  12.5530  12.5531

          k =-0.0007-0.0013 0.5886 (  2360 PWs)   bands (ev):

   -13.3608 -11.8579 -11.8573  -8.1101  -7.2021  -3.3825  -2.7018  -2.7009
    -1.0919  -1.0918  -0.8467   0.2145   0.3261   0.3328   0.9983   3.7887
     6.5883   9.7952  11.4487  11.4572

          k =-0.0013-0.0026 1.1772 (  2368 PWs)   bands (ev):

   -11.2880  -9.8578  -9.8567  -8.1183  -6.4118  -6.4106  -6.3141  -4.6766
    -3.4060  -1.9944  -0.9808  -0.9806   1.4754   2.3859   2.3973   4.6281
     6.3127   8.0017   8.0173  10.2310

          k =-0.0002 0.5315-0.0008 (  2370 PWs)   bands (ev):

   -13.8605 -13.3243 -11.4657 -10.0389  -6.2277  -4.1481  -1.9050  -1.7431
    -0.7957  -0.3117   0.1612   1.2656   1.3142   1.7825   2.1255   2.4080
     8.1585  10.6007  10.6588  12.2789

          k =-0.0009 0.5302 0.5878 (  2367 PWs)   bands (ev):

   -13.1595 -12.6294 -10.7910  -9.3947  -5.7999  -4.0783  -3.1559  -2.4300
    -1.5563  -1.0715  -0.9102  -0.4503   0.3223   1.0293   2.0114   3.1780
     7.7562   9.6554  11.4948  13.1006

          k =-0.0015 0.5289 1.1764 (  2346 PWs)   bands (ev):

   -11.0978 -10.5919  -8.9019  -8.1379  -7.0837  -7.0622  -5.4363  -4.2508
    -3.6439  -2.1364  -1.3022  -0.6930   1.2868   1.4181   3.4506   4.1375
     6.7348   7.2095   9.2659  10.0348

          k = 0.0011 0.5340-1.1780 (  2345 PWs)   bands (ev):

   -11.0965 -10.5920  -8.9020  -8.1392  -7.0836  -7.0629  -5.4360  -4.2499
    -3.6445  -2.1362  -1.3017  -0.6932   1.2740   1.4192   3.4521   4.1498
     6.7461   7.2090   9.2625  10.0231

          k = 0.0005 0.5328-0.5894 (  2367 PWs)   bands (ev):

   -13.1587 -12.6295 -10.7911  -9.3952  -5.8003  -4.0783  -3.1566  -2.4298
    -1.5560  -1.0788  -0.9093  -0.4498   0.3221   1.0296   2.0131   3.1835
     7.7637   9.6533  11.5260  13.0983

          k =-0.5013 0.0055 0.0006 (  2372 PWs)   bands (ev):

   -13.6796 -13.6795 -10.7310 -10.7310  -5.2028  -5.2028  -1.4060  -1.4051
    -0.5971  -0.5971   1.0517   1.0517   1.3079   1.3082   1.7577   1.7578
     9.1755   9.1759   9.9326   9.9345

          k =-0.5020 0.0042 0.5892 (  2358 PWs)   bands (ev):

   -12.9788 -12.9782 -10.0729 -10.0726  -4.9150  -4.9145  -2.8776  -2.8773
    -0.9738  -0.9735  -0.5948  -0.5886   0.7892   0.7893   2.0868   2.0897
     8.7121   8.7189  10.8052  10.8261

          k =-0.5027 0.0029 1.1778 (  2351 PWs)   bands (ev):

   -10.9201 -10.9192  -8.3911  -8.3904  -7.2420  -7.2412  -4.8242  -4.8238
    -2.8749  -2.8745  -0.9117  -0.9116   1.6697   1.6801   3.6491   3.6562
     6.9506   6.9609   9.3873   9.3949

          k =-0.5015 0.5369-0.0002 (  2367 PWs)   bands (ev):

   -13.9488 -13.0322 -12.0097  -9.2775  -7.2047  -3.0208  -2.3842  -0.9138
    -0.8585  -0.5607   0.0084   0.0214   0.8665   2.2558   2.3795   3.0844
     7.7301  10.4878  11.3931  12.3082

          k =-0.5022 0.5357 0.5884 (  2365 PWs)   bands (ev):

   -13.2485 -12.3372 -11.3287  -8.6548  -6.6905  -3.3365  -3.3083  -2.1122
    -1.8232  -1.5376  -0.3358  -0.0039   0.2329   0.8004   1.0432   3.8855
     7.2164  10.5500  11.3690  12.2335

          k =-0.5029 0.5344 1.1770 (  2353 PWs)   bands (ev):

   -11.1881 -10.3048  -9.3748  -8.0751  -6.8248  -6.6229  -5.9361  -4.3579
    -3.7057  -1.7652  -1.4642  -0.7047   0.8847   2.3225   2.7752   4.2071
     6.7174   7.7635   8.4805  10.4140

          k =-0.5002 0.5395-1.1774 (  2357 PWs)   bands (ev):

   -11.1873 -10.3041  -9.3757  -8.0761  -6.8254  -6.6237  -5.9351  -4.3583
    -3.7051  -1.7652  -1.4645  -0.7044   0.8764   2.3146   2.7839   4.2165
     6.7241   7.7740   8.4676  10.4057

          k =-0.5009 0.5382-0.5888 (  2363 PWs)   bands (ev):

   -13.2480 -12.3368 -11.3293  -8.6552  -6.6908  -3.3367  -3.3089  -2.1116
    -1.8235  -1.5421  -0.3355  -0.0037   0.2285   0.8057   1.0432   3.8899
     7.2213  10.5547  11.3833  12.2259

     the Fermi energy is     4.8463 ev

!    total energy              =     -91.15906209 Ry
     Harris-Foulkes estimate   =     -91.15906209 Ry
     estimated scf accuracy    <          2.2E-11 Ry

     The total energy is the sum of the following terms:

     one-electron contribution =     -47.17708886 Ry
     hartree contribution      =      37.50377410 Ry
     xc contribution           =     -27.96182388 Ry
     ewald contribution        =     -53.52439140 Ry
     smearing contrib. (-TS)   =       0.00046795 Ry

     convergence has been achieved in   7 iterations

     Forces acting on atoms (cartesian axes, Ry/au):

     atom    1 type  1   force =     0.00026181   -0.00013201    0.00000485
     atom    2 type  1   force =    -0.00023610    0.00017591   -0.00001604
     atom    3 type  1   force =     0.00024114   -0.00015448    0.00000371
     atom    4 type  1   force =    -0.00026976    0.00011142    0.00000832
     atom    5 type  1   force =     0.00023679   -0.00017593    0.00001701
     atom    6 type  1   force =    -0.00024226    0.00014699   -0.00000939
     atom    7 type  1   force =    -0.00025981    0.00014333    0.00000129
     atom    8 type  1   force =     0.00026819   -0.00011523   -0.00000976

     Total force =     0.000825     Total SCF correction =     0.000005


     Computing stress (Cartesian axis) and pressure

          total   stress  (Ry/bohr**3)                   (kbar)     P=       -0.82
  -0.00000266  -0.00001028  -0.00000026           -0.39       -1.51       -0.04
  -0.00001028  -0.00000476  -0.00000045           -1.51       -0.70       -0.07
  -0.00000026  -0.00000045  -0.00000935           -0.04       -0.07       -1.38


     number of scf cycles    =   4
     number of bfgs steps    =   2

     enthalpy old            =     -91.1590000421 Ry
     enthalpy new            =     -91.1590245300 Ry

     CASE: enthalpy_new < enthalpy_old

     new trust radius        =       0.0011784053 bohr
     new conv_thr            =            1.0E-10 Ry

     new unit-cell volume =    552.33209 a.u.^3 (    81.84717 Ang^3 )
     density =      1.94768 g/cm^3

CELL_PARAMETERS (bohr)
  13.712267252   0.002132739   0.015429593
   0.092202784   8.622790984   0.018796756
   0.005648525   0.007103439   4.671387459

ATOMIC_POSITIONS (crystal)
C             0.0184052882        0.4372078323        0.4053098071
C             0.1847199069        0.2707685581        0.4053246344
C             0.5184500426        0.9373235370        0.4053115061
C             0.6848377774        0.7710697644        0.4052995974
C             0.7684831833        0.6874071183        0.9052977186
C             0.4347699717        0.0208962477        0.9053161166
C             0.9347871114        0.5209404588        0.9053078984
C             0.2683727184        0.1871254834        0.9053237212



     Writing output data file ./pp.save/
     NEW-OLD atomic charge density approx. for the potential
     extrapolated charge   31.98776, renormalised to   32.00000

     total cpu time spent up to now is       29.6 secs

     Self-consistent Calculation

     iteration #  1     ecut=    40.00 Ry     beta= 0.50
     Davidson diagonalization with overlap
     ethr =  1.00E-06,  avg # of iterations =  2.0

     Threshold (ethr) on eigenvalues was too large:
     Diagonalizing with lowered threshold

     Davidson diagonalization with overlap
     ethr =  6.34E-09,  avg # of iterations =  1.6

     total cpu time spent up to now is       31.8 secs

     total energy              =     -91.15906140 Ry
     Harris-Foulkes estimate   =     -91.17380148 Ry
     estimated scf accuracy    <       0.00000206 Ry

     iteration #  2     ecut=    40.00 Ry     beta= 0.50
     Davidson diagonalization with overlap
     ethr =  6.45E-09,  avg # of iterations =  3.0

     total cpu time spent up to now is       33.6 secs

     total energy              =     -91.15906580 Ry
     Harris-Foulkes estimate   =     -91.15906626 Ry
     estimated scf accuracy    <       0.00000139 Ry

     iteration #  3     ecut=    40.00 Ry     beta= 0.50
     Davidson diagonalization with overlap
     ethr =  4.34E-09,  avg # of iterations =  1.0

     total cpu time spent up to now is       34.5 secs

     total energy              =     -91.15906552 Ry
     Harris-Foulkes estimate   =     -91.15906585 Ry
     estimated scf accuracy    <       0.00000049 Ry

     iteration #  4     ecut=    40.00 Ry     beta= 0.50
     Davidson diagonalization with overlap
     ethr =  1.54E-09,  avg # of iterations =  2.0

     total cpu time spent up to now is       36.0 secs

     total energy              =     -91.15906563 Ry
     Harris-Foulkes estimate   =     -91.15906565 Ry
     estimated scf accuracy    <       0.00000003 Ry

     iteration #  5     ecut=    40.00 Ry     beta= 0.50
     Davidson diagonalization with overlap
     ethr =  9.57E-11,  avg # of iterations =  1.8

     total cpu time spent up to now is       37.3 secs

     total energy              =     -91.15906563 Ry
     Harris-Foulkes estimate   =     -91.15906563 Ry
     estimated scf accuracy    <          6.5E-09 Ry

     iteration #  6     ecut=    40.00 Ry     beta= 0.50
     Davidson diagonalization with overlap
     ethr =  2.02E-11,  avg # of iterations =  1.1

     total cpu time spent up to now is       38.4 secs

     total energy              =     -91.15906563 Ry
     Harris-Foulkes estimate   =     -91.15906563 Ry
     estimated scf accuracy    <          2.4E-09 Ry

     iteration #  7     ecut=    40.00 Ry     beta= 0.50
     Davidson diagonalization with overlap
     ethr =  7.48E-12,  avg # of iterations =  2.0

     total cpu time spent up to now is       40.0 secs

     End of self-consistent calculation

          k = 0.0000 0.0000 0.0000 (  2369 PWs)   bands (ev):

   -14.0627 -12.5431 -12.5431  -8.7117  -7.7418  -1.9390  -1.9390  -1.6602
    -0.9588  -0.4669  -0.4669   0.4336   0.4336   2.4227   2.4824   2.9285
     6.8109   8.8965  12.5583  12.5584

          k =-0.0007-0.0013 0.5887 (  2360 PWs)   bands (ev):

   -13.3577 -11.8550 -11.8543  -8.1082  -7.1995  -3.3766  -2.6973  -2.6965
    -1.0893  -1.0892  -0.8425   0.2201   0.3289   0.3355   1.0001   3.7911
     6.5909   9.8002  11.4533  11.4617

          k =-0.0013-0.0026 1.1774 (  2368 PWs)   bands (ev):

   -11.2842  -9.8542  -9.8530  -8.1134  -6.4074  -6.4062  -6.3115  -4.6741
    -3.4022  -1.9919  -0.9793  -0.9791   1.4801   2.3895   2.4007   4.6328
     6.3159   8.0063   8.0219  10.2353

          k =-0.0001 0.5315-0.0008 (  2370 PWs)   bands (ev):

   -13.8576 -13.3214 -11.4634 -10.0369  -6.2261  -4.1469  -1.9019  -1.7408
    -0.7885  -0.3045   0.1620   1.2690   1.3211   1.7833   2.1324   2.4109
     8.1603  10.6036  10.6647  12.2831

          k =-0.0007 0.5303 0.5879 (  2367 PWs)   bands (ev):

   -13.1563 -12.6262 -10.7884  -9.3924  -5.7976  -4.0755  -3.1501  -2.4253
    -1.5513  -1.0681  -0.9077  -0.4453   0.3242   1.0314   2.0151   3.1813
     7.7592   9.6593  11.5009  13.1058

          k =-0.0014 0.5290 1.1766 (  2346 PWs)   bands (ev):

   -11.0939 -10.5880  -8.8983  -8.1333  -7.0793  -7.0590  -5.4321  -4.2470
    -3.6418  -2.1347  -1.2998  -0.6912   1.2908   1.4214   3.4547   4.1418
     6.7389   7.2140   9.2711  10.0396

          k = 0.0012 0.5341-1.1782 (  2345 PWs)   bands (ev):

   -11.0927 -10.5882  -8.8985  -8.1346  -7.0791  -7.0598  -5.4319  -4.2460
    -3.6423  -2.1346  -1.2993  -0.6913   1.2780   1.4225   3.4562   4.1541
     6.7502   7.2136   9.2677  10.0280

          k = 0.0006 0.5328-0.5895 (  2367 PWs)   bands (ev):

   -13.1556 -12.6263 -10.7886  -9.3929  -5.7981  -4.0754  -3.1509  -2.4252
    -1.5511  -1.0754  -0.9068  -0.4447   0.3241   1.0317   2.0167   3.1868
     7.7666   9.6572  11.5319  13.1034

          k =-0.5014 0.0054 0.0006 (  2372 PWs)   bands (ev):

   -13.6768 -13.6767 -10.7287 -10.7287  -5.2014  -5.2014  -1.4026  -1.4017
    -0.5899  -0.5899   1.0524   1.0524   1.3099   1.3101   1.7646   1.7647
     9.1778   9.1782   9.9381   9.9399

          k =-0.5020 0.0041 0.5893 (  2358 PWs)   bands (ev):

   -12.9757 -12.9752 -10.0703 -10.0700  -4.9127  -4.9122  -2.8723  -2.8719
    -0.9687  -0.9684  -0.5911  -0.5850   0.7912   0.7913   2.0890   2.0920
     8.7156   8.7225  10.8109  10.8316

          k =-0.5027 0.0028 1.1780 (  2351 PWs)   bands (ev):

   -10.9163 -10.9154  -8.3871  -8.3865  -7.2380  -7.2373  -4.8201  -4.8197
    -2.8730  -2.8726  -0.9096  -0.9095   1.6740   1.6843   3.6527   3.6597
     6.9550   6.9653   9.3917   9.3992

          k =-0.5015 0.5369-0.0002 (  2367 PWs)   bands (ev):

   -13.9458 -13.0296 -12.0071  -9.2757  -7.2030  -3.0197  -2.3817  -0.9066
    -0.8576  -0.5571   0.0109   0.0285   0.8735   2.2566   2.3863   3.0872
     7.7329  10.4921  11.3952  12.3160

          k =-0.5021 0.5356 0.5885 (  2365 PWs)   bands (ev):

   -13.2452 -12.3343 -11.3259  -8.6527  -6.6883  -3.3327  -3.3024  -2.1074
    -1.8197  -1.5349  -0.3336   0.0014   0.2368   0.8032   1.0452   3.8886
     7.2200  10.5538  11.3736  12.2380

          k =-0.5028 0.5343 1.1772 (  2353 PWs)   bands (ev):

   -11.1842 -10.3011  -9.3712  -8.0702  -6.8204  -6.6202  -5.9318  -4.3556
    -3.7019  -1.7627  -1.4626  -0.7030   0.8882   2.3268   2.7788   4.2112
     6.7214   7.7687   8.4853  10.4188

          k =-0.5001 0.5394-1.1776 (  2357 PWs)   bands (ev):

   -11.1833 -10.3005  -9.3721  -8.0711  -6.8211  -6.6210  -5.9307  -4.3561
    -3.7013  -1.7627  -1.4628  -0.7028   0.8799   2.3190   2.7875   4.2205
     6.7281   7.7790   8.4724  10.4105

          k =-0.5008 0.5382-0.5889 (  2363 PWs)   bands (ev):

   -13.2447 -12.3339 -11.3264  -8.6531  -6.6885  -3.3330  -3.3029  -2.1067
    -1.8199  -1.5394  -0.3334   0.0016   0.2324   0.8085   1.0453   3.8929
     7.2249  10.5585  11.3878  12.2305

     the Fermi energy is     4.8512 ev

!    total energy              =     -91.15906563 Ry
     Harris-Foulkes estimate   =     -91.15906563 Ry
     estimated scf accuracy    <          8.5E-11 Ry

     The total energy is the sum of the following terms:

     one-electron contribution =     -47.12244359 Ry
     hartree contribution      =      37.48081506 Ry
     xc contribution           =     -27.96243210 Ry
     ewald contribution        =     -53.55547094 Ry
     smearing contrib. (-TS)   =       0.00046593 Ry

     convergence has been achieved in   7 iterations

     Forces acting on atoms (cartesian axes, Ry/au):

     atom    1 type  1   force =     0.00004357   -0.00000596   -0.00000208
     atom    2 type  1   force =    -0.00002097    0.00005027   -0.00000674
     atom    3 type  1   force =     0.00003754   -0.00003555   -0.00000562
     atom    4 type  1   force =    -0.00005982   -0.00000960    0.00001404
     atom    5 type  1   force =     0.00001967   -0.00004855    0.00000682
     atom    6 type  1   force =    -0.00004018    0.00002893    0.00000091
     atom    7 type  1   force =    -0.00003901    0.00001490    0.00000709
     atom    8 type  1   force =     0.00005919    0.00000558   -0.00001442

     Total force =     0.000149     Total SCF correction =     0.000001


     Computing stress (Cartesian axis) and pressure

          total   stress  (Ry/bohr**3)                   (kbar)     P=       -0.59
  -0.00000482  -0.00000892  -0.00000029           -0.71       -1.31       -0.04
  -0.00000892  -0.00000558  -0.00000042           -1.31       -0.82       -0.06
  -0.00000029  -0.00000042  -0.00000156           -0.04       -0.06       -0.23


     number of scf cycles    =   5
     number of bfgs steps    =   3

     enthalpy old            =     -91.1590245300 Ry
     enthalpy new            =     -91.1590280846 Ry

     CASE: enthalpy_new < enthalpy_old

     new trust radius        =       0.0012963819 bohr
     new conv_thr            =            1.0E-10 Ry

     new unit-cell volume =    552.13007 a.u.^3 (    81.81723 Ang^3 )
     density =      1.94839 g/cm^3

CELL_PARAMETERS (bohr)
  13.710238854  -0.000967063   0.015328998
   0.090245433   8.621410519   0.018696779
   0.005612423   0.007048285   4.671106052

ATOMIC_POSITIONS (crystal)
C             0.0184106778        0.4372059602        0.4053099357
C             0.1847163226        0.2707758863        0.4053221953
C             0.5184545575        0.9373183076        0.4053110266
C             0.6848314024        0.7710694961        0.4053023973
C             0.7684867154        0.6873999199        0.9053002523
C             0.4347653244        0.0209006089        0.9053154094
C             0.9347819768        0.5209435639        0.9053090414
C             0.2683790232        0.1871252570        0.9053207420



     Writing output data file ./pp.save/
     NEW-OLD atomic charge density approx. for the potential
     extrapolated charge   31.98829, renormalised to   32.00000

     total cpu time spent up to now is       40.1 secs

     Self-consistent Calculation

     iteration #  1     ecut=    40.00 Ry     beta= 0.50
     Davidson diagonalization with overlap
     ethr =  1.00E-06,  avg # of iterations =  2.0

     Threshold (ethr) on eigenvalues was too large:
     Diagonalizing with lowered threshold

     Davidson diagonalization with overlap
     ethr =  5.34E-09,  avg # of iterations =  1.2

     total cpu time spent up to now is       42.8 secs

     total energy              =     -91.15906490 Ry
     Harris-Foulkes estimate   =     -91.17314821 Ry
     estimated scf accuracy    <       0.00000173 Ry

     iteration #  2     ecut=    40.00 Ry     beta= 0.50
     Davidson diagonalization with overlap
     ethr =  5.41E-09,  avg # of iterations =  3.0

     total cpu time spent up to now is       45.0 secs

     total energy              =     -91.15906885 Ry
     Harris-Foulkes estimate   =     -91.15906928 Ry
     estimated scf accuracy    <       0.00000132 Ry

     iteration #  3     ecut=    40.00 Ry     beta= 0.50
     Davidson diagonalization with overlap
     ethr =  4.12E-09,  avg # of iterations =  1.0

     total cpu time spent up to now is       46.2 secs

     total energy              =     -91.15906857 Ry
     Harris-Foulkes estimate   =     -91.15906889 Ry
     estimated scf accuracy    <       0.00000049 Ry

     iteration #  4     ecut=    40.00 Ry     beta= 0.50
     Davidson diagonalization with overlap
     ethr =  1.52E-09,  avg # of iterations =  2.0

     total cpu time spent up to now is       47.9 secs

     total energy              =     -91.15906868 Ry
     Harris-Foulkes estimate   =     -91.15906869 Ry
     estimated scf accuracy    <       0.00000004 Ry

     iteration #  5     ecut=    40.00 Ry     beta= 0.50
     Davidson diagonalization with overlap
     ethr =  1.11E-10,  avg # of iterations =  2.0

     total cpu time spent up to now is       49.6 secs

     total energy              =     -91.15906868 Ry
     Harris-Foulkes estimate   =     -91.15906868 Ry
     estimated scf accuracy    <          5.5E-09 Ry

     iteration #  6     ecut=    40.00 Ry     beta= 0.50
     Davidson diagonalization with overlap
     ethr =  1.71E-11,  avg # of iterations =  2.0

     total cpu time spent up to now is       51.5 secs

     total energy              =     -91.15906868 Ry
     Harris-Foulkes estimate   =     -91.15906868 Ry
     estimated scf accuracy    <          2.2E-10 Ry

     iteration #  7     ecut=    40.00 Ry     beta= 0.50
     Davidson diagonalization with overlap
     ethr =  6.97E-13,  avg # of iterations =  1.5

     total cpu time spent up to now is       53.0 secs

     total energy              =     -91.15906868 Ry
     Harris-Foulkes estimate   =     -91.15906868 Ry
     estimated scf accuracy    <          2.2E-10 Ry

     iteration #  8     ecut=    40.00 Ry     beta= 0.50
     Davidson diagonalization with overlap
     ethr =  6.96E-13,  avg # of iterations =  2.0

     total cpu time spent up to now is       55.1 secs

     End of self-consistent calculation

          k = 0.0000 0.0000 0.0000 (  2369 PWs)   bands (ev):

   -14.0594 -12.5397 -12.5397  -8.7090  -7.7386  -1.9368  -1.9368  -1.6558
    -0.9536  -0.4640  -0.4640   0.4388   0.4388   2.4249   2.4874   2.9310
     6.8131   8.9015  12.5641  12.5642

          k =-0.0007-0.0013 0.5887 (  2360 PWs)   bands (ev):

   -13.3543 -11.8516 -11.8509  -8.1054  -7.1962  -3.3719  -2.6934  -2.6926
    -1.0862  -1.0861  -0.8380   0.2245   0.3319   0.3385   1.0028   3.7937
     6.5938   9.8052  11.4570  11.4654

          k =-0.0013-0.0025 1.1774 (  2368 PWs)   bands (ev):

   -11.2804  -9.8505  -9.8493  -8.1093  -6.4033  -6.4022  -6.3084  -4.6709
    -3.3986  -1.9887  -0.9767  -0.9765   1.4847   2.3928   2.4040   4.6370
     6.3188   8.0100   8.0256  10.2386

          k = 0.0000 0.5316-0.0008 (  2370 PWs)   bands (ev):

   -13.8542 -13.3179 -11.4604 -10.0340  -6.2233  -4.1445  -1.8983  -1.7383
    -0.7833  -0.2993   0.1641   1.2730   1.3261   1.7854   2.1374   2.4144
     8.1625  10.6067  10.6711  12.2878

          k =-0.0006 0.5304 0.5879 (  2367 PWs)   bands (ev):

   -13.1528 -12.6226 -10.7853  -9.3894  -5.7946  -4.0723  -3.1455  -2.4212
    -1.5472  -1.0645  -0.9050  -0.4411   0.3270   1.0342   2.0191   3.1849
     7.7621   9.6628  11.5074  13.1099

          k =-0.0013 0.5291 1.1766 (  2346 PWs)   bands (ev):

   -11.0901 -10.5841  -8.8948  -8.1293  -7.0752  -7.0556  -5.4284  -4.2433
    -3.6388  -2.1320  -1.2968  -0.6885   1.2947   1.4244   3.4586   4.1458
     6.7425   7.2178   9.2755  10.0436

          k = 0.0014 0.5342-1.1783 (  2345 PWs)   bands (ev):

   -11.0889 -10.5843  -8.8950  -8.1306  -7.0751  -7.0563  -5.4281  -4.2424
    -3.6394  -2.1319  -1.2964  -0.6886   1.2819   1.4255   3.4600   4.1580
     6.7538   7.2174   9.2721  10.0320

          k = 0.0007 0.5329-0.5895 (  2367 PWs)   bands (ev):

   -13.1521 -12.6227 -10.7854  -9.3899  -5.7951  -4.0723  -3.1463  -2.4211
    -1.5469  -1.0717  -0.9041  -0.4405   0.3268   1.0345   2.0208   3.1904
     7.7695   9.6606  11.5382  13.1076

          k =-0.5014 0.0052 0.0006 (  2372 PWs)   bands (ev):

   -13.6734 -13.6733 -10.7255 -10.7255  -5.1989  -5.1989  -1.3987  -1.3978
    -0.5847  -0.5847   1.0545   1.0545   1.3122   1.3125   1.7697   1.7697
     9.1806   9.1810   9.9440   9.9458

          k =-0.5021 0.0040 0.5893 (  2358 PWs)   bands (ev):

   -12.9723 -12.9717 -10.0670 -10.0667  -4.9097  -4.9092  -2.8679  -2.8675
    -0.9645  -0.9642  -0.5871  -0.5810   0.7939   0.7940   2.0915   2.0945
     8.7191   8.7259  10.8168  10.8375

          k =-0.5028 0.0027 1.1780 (  2351 PWs)   bands (ev):

   -10.9126 -10.9117  -8.3833  -8.3827  -7.2342  -7.2334  -4.8163  -4.8158
    -2.8702  -2.8698  -0.9068  -0.9067   1.6781   1.6884   3.6560   3.6630
     6.9588   6.9691   9.3951   9.4026

          k =-0.5014 0.5369-0.0002 (  2367 PWs)   bands (ev):

   -13.9422 -13.0263 -12.0038  -9.2729  -7.2002  -3.0173  -2.3789  -0.9013
    -0.8554  -0.5528   0.0139   0.0336   0.8786   2.2587   2.3913   3.0905
     7.7363  10.4968  11.3976  12.3247

          k =-0.5021 0.5356 0.5885 (  2365 PWs)   bands (ev):

   -13.2416 -12.3310 -11.3226  -8.6498  -6.6854  -3.3291  -3.2976  -2.1033
    -1.8162  -1.5320  -0.3307   0.0056   0.2411   0.8063   1.0480   3.8919
     7.2236  10.5572  11.3784  12.2415

          k =-0.5027 0.5343 1.1772 (  2353 PWs)   bands (ev):

   -11.1803 -10.2975  -9.3675  -8.0659  -6.8165  -6.6171  -5.9278  -4.3526
    -3.6983  -1.7597  -1.4600  -0.7004   0.8913   2.3311   2.7824   4.2147
     6.7251   7.7730   8.4891  10.4228

          k =-0.5001 0.5394-1.1777 (  2357 PWs)   bands (ev):

   -11.1794 -10.2968  -9.3684  -8.0669  -6.8171  -6.6178  -5.9267  -4.3530
    -3.6977  -1.7597  -1.4602  -0.7001   0.8831   2.3233   2.7910   4.2240
     6.7318   7.7833   8.4763  10.4145

          k =-0.5008 0.5381-0.5889 (  2363 PWs)   bands (ev):

   -13.2411 -12.3306 -11.3231  -8.6502  -6.6856  -3.3294  -3.2982  -2.1026
    -1.8164  -1.5365  -0.3306   0.0058   0.2367   0.8116   1.0480   3.8962
     7.2285  10.5619  11.3925  12.2340

     the Fermi energy is     4.8558 ev

!    total energy              =     -91.15906868 Ry
     Harris-Foulkes estimate   =     -91.15906868 Ry
     estimated scf accuracy    <          7.5E-12 Ry

     The total energy is the sum of the following terms:

     one-electron contribution =     -47.05610924 Ry
     hartree contribution      =      37.45188922 Ry
     xc contribution           =     -27.96253394 Ry
     ewald contribution        =     -53.59277831 Ry
     smearing contrib. (-TS)   =       0.00046359 Ry

     convergence has been achieved in   8 iterations

     Forces acting on atoms (cartesian axes, Ry/au):

     atom    1 type  1   force =    -0.00004852    0.00004344   -0.00000026
     atom    2 type  1   force =     0.00007324   -0.00000209   -0.00000659
     atom    3 type  1   force =    -0.00005889    0.00001851   -0.00000310
     atom    4 type  1   force =     0.00003527   -0.00006089    0.00000948
     atom    5 type  1   force =    -0.00007349    0.00000360    0.00000664
     atom    6 type  1   force =     0.00005527   -0.00002467   -0.00000056
     atom    7 type  1   force =     0.00005402   -0.00003579    0.00000407
     atom    8 type  1   force =    -0.00003690    0.00005789   -0.00000969

     Total force =     0.000191     Total SCF correction =     0.000000


     Computing stress (Cartesian axis) and pressure

          total   stress  (Ry/bohr**3)                   (kbar)     P=       -0.55
  -0.00000647  -0.00000772  -0.00000027           -0.95       -1.14       -0.04
  -0.00000772  -0.00000604  -0.00000042           -1.14       -0.89       -0.06
  -0.00000027  -0.00000042   0.00000120           -0.04       -0.06        0.18


     number of scf cycles    =   6
     number of bfgs steps    =   4

     enthalpy old            =     -91.1590280846 Ry
     enthalpy new            =     -91.1590311456 Ry

     CASE: enthalpy_new < enthalpy_old

     new trust radius        =       0.0019449240 bohr
     new conv_thr            =            1.0E-10 Ry

     new unit-cell volume =    551.81542 a.u.^3 (    81.77061 Ang^3 )
     density =      1.94950 g/cm^3

CELL_PARAMETERS (bohr)
  13.706672201  -0.005390324   0.015183097
   0.087448296   8.619222394   0.018540908
   0.005559675   0.006962045   4.670828757

ATOMIC_POSITIONS (crystal)
C             0.0184159170        0.4372053129        0.4053108524
C             0.1847140666        0.2707845461        0.4053180786
C             0.5184579011        0.9373132394        0.4053112724
C             0.6848250022        0.7710665058        0.4053054042
C             0.7684890012        0.6873913948        0.9053045476
C             0.4347617219        0.0209043800        0.9053135396
C             0.9347771654        0.5209460027        0.9053098530
C             0.2683852246        0.1871276183        0.9053174523



     Writing output data file ./pp.save/
     NEW-OLD atomic charge density approx. for the potential
     extrapolated charge   31.98175, renormalised to   32.00000

     total cpu time spent up to now is       55.2 secs

     Self-consistent Calculation

     iteration #  1     ecut=    40.00 Ry     beta= 0.50
     Davidson diagonalization with overlap
     ethr =  1.00E-06,  avg # of iterations =  2.0

     Threshold (ethr) on eigenvalues was too large:
     Diagonalizing with lowered threshold

     Davidson diagonalization with overlap
     ethr =  1.30E-08,  avg # of iterations =  1.3

     total cpu time spent up to now is       58.6 secs

     total energy              =     -91.15906387 Ry
     Harris-Foulkes estimate   =     -91.18096347 Ry
     estimated scf accuracy    <       0.00000422 Ry

     iteration #  2     ecut=    40.00 Ry     beta= 0.50
     Davidson diagonalization with overlap
     ethr =  1.32E-08,  avg # of iterations =  3.0

     total cpu time spent up to now is       61.2 secs

     total energy              =     -91.15907346 Ry
     Harris-Foulkes estimate   =     -91.15907450 Ry
     estimated scf accuracy    <       0.00000318 Ry

     iteration #  3     ecut=    40.00 Ry     beta= 0.50
     Davidson diagonalization with overlap
     ethr =  9.95E-09,  avg # of iterations =  1.0

     total cpu time spent up to now is       62.7 secs

     total energy              =     -91.15907277 Ry
     Harris-Foulkes estimate   =     -91.15907356 Ry
     estimated scf accuracy    <       0.00000117 Ry

     iteration #  4     ecut=    40.00 Ry     beta= 0.50
     Davidson diagonalization with overlap
     ethr =  3.65E-09,  avg # of iterations =  2.0

     total cpu time spent up to now is       64.9 secs

     total energy              =     -91.15907304 Ry
     Harris-Foulkes estimate   =     -91.15907308 Ry
     estimated scf accuracy    <       0.00000009 Ry

     iteration #  5     ecut=    40.00 Ry     beta= 0.50
     Davidson diagonalization with overlap
     ethr =  2.71E-10,  avg # of iterations =  2.0

     total cpu time spent up to now is       67.9 secs

     total energy              =     -91.15907304 Ry
     Harris-Foulkes estimate   =     -91.15907305 Ry
     estimated scf accuracy    <       0.00000001 Ry

     iteration #  6     ecut=    40.00 Ry     beta= 0.50
     Davidson diagonalization with overlap
     ethr =  4.12E-11,  avg # of iterations =  2.0

     total cpu time spent up to now is       70.2 secs

     End of self-consistent calculation

          k = 0.0000 0.0000 0.0000 (  2369 PWs)   bands (ev):

   -14.0543 -12.5345 -12.5345  -8.7042  -7.7336  -1.9324  -1.9324  -1.6489
    -0.9467  -0.4594  -0.4594   0.4456   0.4456   2.4293   2.4942   2.9353
     6.8172   8.9092  12.5734  12.5734

          k =-0.0007-0.0013 0.5888 (  2360 PWs)   bands (ev):

   -13.3491 -11.8462 -11.8456  -8.1005  -7.1910  -3.3656  -2.6875  -2.6868
    -1.0811  -1.0809  -0.8311   0.2308   0.3367   0.3432   1.0077   3.7981
     6.5986   9.8129  11.4629  11.4713

          k =-0.0013-0.0025 1.1775 (  2368 PWs)   bands (ev):

   -11.2750  -9.8448  -9.8437  -8.1033  -6.3974  -6.3963  -6.3032  -4.6658
    -3.3929  -1.9836  -0.9720  -0.9718   1.4916   2.3979   2.4090   4.6435
     6.3236   8.0156   8.0310  10.2439

          k = 0.0002 0.5318-0.0008 (  2370 PWs)   bands (ev):

   -13.8489 -13.3124 -11.4554 -10.0291  -6.2185  -4.1399  -1.8929  -1.7343
    -0.7763  -0.2924   0.1686   1.2793   1.3329   1.7899   2.1442   2.4202
     8.1668  10.6122  10.6808  12.2952

          k =-0.0004 0.5305 0.5880 (  2367 PWs)   bands (ev):

   -13.1475 -12.6171 -10.7803  -9.3844  -5.7896  -4.0671  -3.1392  -2.4152
    -1.5412  -1.0590  -0.9009  -0.4351   0.3319   1.0392   2.0255   3.1908
     7.7670   9.6683  11.5171  13.1164

          k =-0.0011 0.5292 1.1767 (  2346 PWs)   bands (ev):

   -11.0845 -10.5784  -8.8894  -8.1235  -7.0693  -7.0502  -5.4227  -4.2377
    -3.6338  -2.1272  -1.2917  -0.6837   1.3004   1.4289   3.4646   4.1518
     6.7483   7.2235   9.2822  10.0497

          k = 0.0015 0.5343-1.1783 (  2345 PWs)   bands (ev):

   -11.0832 -10.5785  -8.8896  -8.1248  -7.0691  -7.0510  -5.4224  -4.2368
    -3.6343  -2.1271  -1.2913  -0.6838   1.2877   1.4301   3.4659   4.1640
     6.7594   7.2231   9.2787  10.0383

          k = 0.0009 0.5330-0.5896 (  2367 PWs)   bands (ev):

   -13.1467 -12.6172 -10.7804  -9.3849  -5.7900  -4.0670  -3.1399  -2.4151
    -1.5409  -1.0662  -0.9000  -0.4344   0.3317   1.0394   2.0271   3.1962
     7.7743   9.6661  11.5477  13.1141

          k =-0.5016 0.0051 0.0006 (  2372 PWs)   bands (ev):

   -13.6683 -13.6682 -10.7203 -10.7203  -5.1942  -5.1942  -1.3926  -1.3918
    -0.5778  -0.5778   1.0589   1.0589   1.3162   1.3164   1.7765   1.7766
     9.1857   9.1862   9.9532   9.9549

          k =-0.5022 0.0038 0.5893 (  2358 PWs)   bands (ev):

   -12.9671 -12.9665 -10.0617 -10.0615  -4.9046  -4.9042  -2.8617  -2.8613
    -0.9584  -0.9581  -0.5810  -0.5749   0.7988   0.7989   2.0957   2.0985
     8.7247   8.7315  10.8259  10.8464

          k =-0.5029 0.0026 1.1781 (  2351 PWs)   bands (ev):

   -10.9071 -10.9062  -8.3776  -8.3769  -7.2286  -7.2278  -4.8105  -4.8100
    -2.8653  -2.8649  -0.9019  -0.9018   1.6843   1.6946   3.6611   3.6680
     6.9647   6.9749   9.4003   9.4078

          k =-0.5014 0.5368-0.0002 (  2367 PWs)   bands (ev):

   -13.9368 -13.0213 -11.9986  -9.2681  -7.1955  -3.0127  -2.3747  -0.8944
    -0.8509  -0.5462   0.0187   0.0405   0.8854   2.2631   2.3981   3.0958
     7.7421  10.5041  11.4020  12.3378

          k =-0.5020 0.5356 0.5886 (  2365 PWs)   bands (ev):

   -13.2360 -12.3259 -11.3173  -8.6448  -6.6804  -3.3235  -3.2912  -2.0973
    -1.8107  -1.5277  -0.3257   0.0118   0.2477   0.8112   1.0529   3.8973
     7.2295  10.5627  11.3857  12.2472

          k =-0.5027 0.5343 1.1773 (  2353 PWs)   bands (ev):

   -11.1745 -10.2921  -9.3619  -8.0598  -6.8107  -6.6119  -5.9220  -4.3476
    -3.6927  -1.7547  -1.4552  -0.6955   0.8960   2.3377   2.7878   4.2200
     6.7311   7.7796   8.4949  10.4289

          k =-0.5001 0.5394-1.1777 (  2357 PWs)   bands (ev):

   -11.1736 -10.2914  -9.3628  -8.0608  -6.8114  -6.6127  -5.9209  -4.3481
    -3.6921  -1.7546  -1.4553  -0.6953   0.8879   2.3299   2.7964   4.2291
     6.7377   7.7898   8.4822  10.4207

          k =-0.5007 0.5381-0.5890 (  2363 PWs)   bands (ev):

   -13.2355 -12.3255 -11.3178  -8.6453  -6.6807  -3.3238  -3.2917  -2.0966
    -1.8108  -1.5321  -0.3256   0.0120   0.2433   0.8165   1.0529   3.9016
     7.2344  10.5674  11.3997  12.2397

     the Fermi energy is     4.8627 ev

!    total energy              =     -91.15907304 Ry
     Harris-Foulkes estimate   =     -91.15907304 Ry
     estimated scf accuracy    <          9.8E-11 Ry

     The total energy is the sum of the following terms:

     one-electron contribution =     -46.95628283 Ry
     hartree contribution      =      37.40851966 Ry
     xc contribution           =     -27.96279612 Ry
     ewald contribution        =     -53.64897379 Ry
     smearing contrib. (-TS)   =       0.00046003 Ry

     convergence has been achieved in   6 iterations

     Forces acting on atoms (cartesian axes, Ry/au):

     atom    1 type  1   force =    -0.00013624    0.00008975   -0.00000625
     atom    2 type  1   force =     0.00015800   -0.00004896    0.00000256
     atom    3 type  1   force =    -0.00013644    0.00006085   -0.00000950
     atom    4 type  1   force =     0.00011682   -0.00010296    0.00001229
     atom    5 type  1   force =    -0.00015906    0.00005155   -0.00000296
     atom    6 type  1   force =     0.00013114   -0.00006610    0.00000736
     atom    7 type  1   force =     0.00014330   -0.00008412    0.00000836
     atom    8 type  1   force =    -0.00011753    0.00010000   -0.00001185

     Total force =     0.000450     Total SCF correction =     0.000020


     Computing stress (Cartesian axis) and pressure

          total   stress  (Ry/bohr**3)                   (kbar)     P=       -0.47
  -0.00000740  -0.00000711  -0.00000030           -1.09       -1.05       -0.04
  -0.00000711  -0.00000634  -0.00000040           -1.05       -0.93       -0.06
  -0.00000030  -0.00000040   0.00000411           -0.04       -0.06        0.61


     number of scf cycles    =   7
     number of bfgs steps    =   5

     enthalpy old            =     -91.1590311456 Ry
     enthalpy new            =     -91.1590355282 Ry

     CASE: enthalpy_new < enthalpy_old

     new trust radius        =       0.0029182180 bohr
     new conv_thr            =            1.0E-10 Ry

     new unit-cell volume =    551.35778 a.u.^3 (    81.70279 Ang^3 )
     density =      1.95112 g/cm^3

CELL_PARAMETERS (bohr)
  13.701239220  -0.011956661   0.014955094
   0.083294995   8.615929900   0.018313127
   0.005477297   0.006835608   4.670568390

ATOMIC_POSITIONS (crystal)
C             0.0184214254        0.4372059910        0.4053109185
C             0.1847127779        0.2707958699        0.4053137869
C             0.5184613157        0.9373067777        0.4053102735
C             0.6848172915        0.7710608950        0.4053106471
C             0.7684902706        0.6873803870        0.9053090280
C             0.4347578204        0.0209089871        0.9053123772
C             0.9347723782        0.5209478287        0.9053120734
C             0.2683927204        0.1871322636        0.9053118952



     Writing output data file ./pp.save/
     NEW-OLD atomic charge density approx. for the potential
     extrapolated charge   31.97344, renormalised to   32.00000

     total cpu time spent up to now is       70.3 secs

     Self-consistent Calculation

     iteration #  1     ecut=    40.00 Ry     beta= 0.50
     Davidson diagonalization with overlap
     ethr =  1.00E-06,  avg # of iterations =  2.1

     Threshold (ethr) on eigenvalues was too large:
     Diagonalizing with lowered threshold

     Davidson diagonalization with overlap
     ethr =  2.72E-08,  avg # of iterations =  1.1

     total cpu time spent up to now is       74.2 secs

     total energy              =     -91.15906007 Ry
     Harris-Foulkes estimate   =     -91.19083343 Ry
     estimated scf accuracy    <       0.00000880 Ry

     iteration #  2     ecut=    40.00 Ry     beta= 0.50
     Davidson diagonalization with overlap
     ethr =  2.75E-08,  avg # of iterations =  3.0

     total cpu time spent up to now is       77.2 secs

     total energy              =     -91.15908028 Ry
     Harris-Foulkes estimate   =     -91.15908247 Ry
     estimated scf accuracy    <       0.00000677 Ry

     iteration #  3     ecut=    40.00 Ry     beta= 0.50
     Davidson diagonalization with overlap
     ethr =  2.11E-08,  avg # of iterations =  1.0

     total cpu time spent up to now is       78.9 secs

     total energy              =     -91.15907880 Ry
     Harris-Foulkes estimate   =     -91.15908048 Ry
     estimated scf accuracy    <       0.00000250 Ry

     iteration #  4     ecut=    40.00 Ry     beta= 0.50
     Davidson diagonalization with overlap
     ethr =  7.80E-09,  avg # of iterations =  2.0

     total cpu time spent up to now is       81.4 secs

     total energy              =     -91.15907939 Ry
     Harris-Foulkes estimate   =     -91.15907945 Ry
     estimated scf accuracy    <       0.00000016 Ry

     iteration #  5     ecut=    40.00 Ry     beta= 0.50
     Davidson diagonalization with overlap
     ethr =  5.15E-10,  avg # of iterations =  1.0

     total cpu time spent up to now is       83.2 secs

     total energy              =     -91.15907938 Ry
     Harris-Foulkes estimate   =     -91.15907940 Ry
     estimated scf accuracy    <       0.00000005 Ry

     iteration #  6     ecut=    40.00 Ry     beta= 0.50
     Davidson diagonalization with overlap
     ethr =  1.51E-10,  avg # of iterations =  1.1

     total cpu time spent up to now is       85.2 secs

     total energy              =     -91.15907937 Ry
     Harris-Foulkes estimate   =     -91.15907938 Ry
     estimated scf accuracy    <       0.00000002 Ry

     iteration #  7     ecut=    40.00 Ry     beta= 0.50
     Davidson diagonalization with overlap
     ethr =  5.20E-11,  avg # of iterations =  2.0

     total cpu time spent up to now is       87.9 secs

     End of self-consistent calculation

          k = 0.0000 0.0000 0.0000 (  2369 PWs)   bands (ev):

   -14.0467 -12.5266 -12.5266  -8.6967  -7.7258  -1.9255  -1.9255  -1.6387
    -0.9372  -0.4525  -0.4525   0.4551   0.4551   2.4362   2.5035   2.9417
     6.8233   8.9206  12.5871  12.5871

          k =-0.0006-0.0012 0.5888 (  2360 PWs)   bands (ev):

   -13.3414 -11.8383 -11.8376  -8.0929  -7.1832  -3.3566  -2.6792  -2.6784
    -1.0734  -1.0733  -0.8209   0.2397   0.3437   0.3502   1.0151   3.8046
     6.6058   9.8242  11.4713  11.4796

          k =-0.0013-0.0025 1.1776 (  2368 PWs)   bands (ev):

   -11.2670  -9.8366  -9.8355  -8.0949  -6.3890  -6.3878  -6.2954  -4.6580
    -3.3846  -1.9758  -0.9648  -0.9646   1.5017   2.4053   2.4163   4.6528
     6.3304   8.0235   8.0387  10.2513

          k = 0.0005 0.5320-0.0008 (  2370 PWs)   bands (ev):

   -13.8411 -13.3043 -11.4480 -10.0217  -6.2110  -4.1329  -1.8847  -1.7283
    -0.7668  -0.2829   0.1755   1.2888   1.3423   1.7968   2.1535   2.4288
     8.1732  10.6202  10.6954  12.3064

          k =-0.0002 0.5307 0.5880 (  2367 PWs)   bands (ev):

   -13.1395 -12.6088 -10.7728  -9.3770  -5.7819  -4.0594  -3.1302  -2.4066
    -1.5326  -1.0508  -0.8948  -0.4265   0.3393   1.0467   2.0350   3.1995
     7.7740   9.6761  11.5316  13.1255

          k =-0.0008 0.5295 1.1768 (  2346 PWs)   bands (ev):

   -11.0763 -10.5699  -8.8814  -8.1151  -7.0607  -7.0423  -5.4145  -4.2296
    -3.6262  -2.1200  -1.2841  -0.6764   1.3087   1.4356   3.4732   4.1606
     6.7566   7.2316   9.2917  10.0584

          k = 0.0018 0.5344-1.1784 (  2345 PWs)   bands (ev):

   -11.0750 -10.5701  -8.8816  -8.1164  -7.0605  -7.0431  -5.4143  -4.2287
    -3.6268  -2.1198  -1.2837  -0.6765   1.2962   1.4367   3.4746   4.1727
     6.7676   7.2312   9.2882  10.0471

          k = 0.0011 0.5332-0.5896 (  2367 PWs)   bands (ev):

   -13.1388 -12.6089 -10.7729  -9.3775  -5.7824  -4.0593  -3.1310  -2.4065
    -1.5324  -1.0579  -0.8939  -0.4258   0.3391   1.0469   2.0366   3.2049
     7.7813   9.6740  11.5617  13.1232

          k =-0.5018 0.0048 0.0006 (  2372 PWs)   bands (ev):

   -13.6606 -13.6605 -10.7125 -10.7124  -5.1870  -5.1870  -1.3836  -1.3828
    -0.5684  -0.5684   1.0657   1.0657   1.3221   1.3223   1.7859   1.7859
     9.1934   9.1937   9.9668   9.9684

          k =-0.5024 0.0036 0.5894 (  2358 PWs)   bands (ev):

   -12.9593 -12.9587 -10.0538 -10.0535  -4.8971  -4.8967  -2.8530  -2.8526
    -0.9497  -0.9494  -0.5719  -0.5659   0.8062   0.8063   2.1017   2.1046
     8.7330   8.7397  10.8394  10.8596

          k =-0.5031 0.0024 1.1782 (  2351 PWs)   bands (ev):

   -10.8990 -10.8981  -8.3692  -8.3686  -7.2203  -7.2195  -4.8021  -4.8016
    -2.8579  -2.8575  -0.8944  -0.8943   1.6934   1.7036   3.6685   3.6753
     6.9730   6.9831   9.4077   9.4150

          k =-0.5013 0.5368-0.0002 (  2367 PWs)   bands (ev):

   -13.9286 -13.0138 -11.9908  -9.2607  -7.1882  -3.0055  -2.3684  -0.8848
    -0.8440  -0.5364   0.0258   0.0499   0.8948   2.2700   2.4074   3.1039
     7.7508  10.5150  11.4086  12.3575

          k =-0.5020 0.5356 0.5886 (  2365 PWs)   bands (ev):

   -13.2278 -12.3182 -11.3094  -8.6374  -6.6730  -3.3154  -3.2821  -2.0887
    -1.8026  -1.5212  -0.3182   0.0205   0.2575   0.8185   1.0603   3.9054
     7.2380  10.5706  11.3966  12.2550

          k =-0.5026 0.5343 1.1774 (  2353 PWs)   bands (ev):

   -11.1660 -10.2841  -9.3537  -8.0511  -6.8024  -6.6042  -5.9135  -4.3401
    -3.6846  -1.7471  -1.4478  -0.6882   0.9028   2.3473   2.7957   4.2274
     6.7397   7.7889   8.5030  10.4376

          k =-0.5000 0.5393-1.1778 (  2357 PWs)   bands (ev):

   -11.1652 -10.2835  -9.3547  -8.0520  -6.8031  -6.6050  -5.9125  -4.3406
[...]
     number of bfgs steps    =  32

     enthalpy old            =     -91.1597088211 Ry
     enthalpy new            =     -91.1597228258 Ry

     CASE: enthalpy_new < enthalpy_old

     new trust radius        =       0.0115320685 bohr
     new conv_thr            =            1.0E-10 Ry

     new unit-cell volume =    564.86335 a.u.^3 (    83.70411 Ang^3 )
     density =      1.90447 g/cm^3

CELL_PARAMETERS (bohr)
  12.165663262  -0.396845399  -0.075165320
  -0.204671535   9.946952028  -0.065093005
  -0.023322924  -0.032693212   4.671360051

ATOMIC_POSITIONS (crystal)
C             0.0179140665        0.4365622610        0.4053020510
C             0.1835092446        0.2691911325        0.4050743680
C             0.5189554563        0.9379613982        0.4053336147
C             0.6860284146        0.7726519601        0.4055334143
C             0.7696043730        0.6888645715        0.9055413411
C             0.4345568560        0.0206462062        0.9052632380
C             0.9349904924        0.5212110456        0.9053457936
C             0.2672670966        0.1856504249        0.9050971793



     Writing output data file ./pp.save/
     NEW-OLD atomic charge density approx. for the potential
     extrapolated charge   31.97106, renormalised to   32.00000

     total cpu time spent up to now is     1943.1 secs

     Self-consistent Calculation

     iteration #  1     ecut=    40.00 Ry     beta= 0.50
     Davidson diagonalization with overlap
     ethr =  1.00E-06,  avg # of iterations =  3.6

     Threshold (ethr) on eigenvalues was too large:
     Diagonalizing with lowered threshold

     Davidson diagonalization with overlap
     ethr =  7.07E-08,  avg # of iterations =  2.2

     total cpu time spent up to now is     1976.3 secs

     total energy              =     -91.15974560 Ry
     Harris-Foulkes estimate   =     -91.19790559 Ry
     estimated scf accuracy    <       0.00002227 Ry

     iteration #  2     ecut=    40.00 Ry     beta= 0.50
     Davidson diagonalization with overlap
     ethr =  6.96E-08,  avg # of iterations =  2.9

     total cpu time spent up to now is     1993.0 secs

     total energy              =     -91.15977316 Ry
     Harris-Foulkes estimate   =     -91.15977616 Ry
     estimated scf accuracy    <       0.00000938 Ry

     iteration #  3     ecut=    40.00 Ry     beta= 0.50
     Davidson diagonalization with overlap
     ethr =  2.93E-08,  avg # of iterations =  1.0

     total cpu time spent up to now is     2003.0 secs

     total energy              =     -91.15977217 Ry
     Harris-Foulkes estimate   =     -91.15977356 Ry
     estimated scf accuracy    <       0.00000278 Ry

     iteration #  4     ecut=    40.00 Ry     beta= 0.50
     Davidson diagonalization with overlap
     ethr =  8.70E-09,  avg # of iterations =  2.0

     total cpu time spent up to now is     2018.2 secs

     total energy              =     -91.15977271 Ry
     Harris-Foulkes estimate   =     -91.15977274 Ry
     estimated scf accuracy    <       0.00000013 Ry

     iteration #  5     ecut=    40.00 Ry     beta= 0.50
     Davidson diagonalization with overlap
     ethr =  4.16E-10,  avg # of iterations =  2.2

     total cpu time spent up to now is     2032.2 secs

     total energy              =     -91.15977270 Ry
     Harris-Foulkes estimate   =     -91.15977272 Ry
     estimated scf accuracy    <       0.00000005 Ry

     iteration #  6     ecut=    40.00 Ry     beta= 0.50
     Davidson diagonalization with overlap
     ethr =  1.41E-10,  avg # of iterations =  2.0

     total cpu time spent up to now is     2046.0 secs

     total energy              =     -91.15977271 Ry
     Harris-Foulkes estimate   =     -91.15977271 Ry
     estimated scf accuracy    <          1.0E-09 Ry

     iteration #  7     ecut=    40.00 Ry     beta= 0.50
     Davidson diagonalization with overlap
     ethr =  3.14E-12,  avg # of iterations =  3.0

     total cpu time spent up to now is     2064.0 secs

     total energy              =     -91.15977271 Ry
     Harris-Foulkes estimate   =     -91.15977271 Ry
     estimated scf accuracy    <          5.8E-10 Ry

     iteration #  8     ecut=    40.00 Ry     beta= 0.50
     Davidson diagonalization with overlap
     ethr =  1.82E-12,  avg # of iterations =  2.0

     total cpu time spent up to now is     2078.9 secs

     End of self-consistent calculation

          k = 0.0000 0.0000 0.0000 (  2369 PWs)   bands (ev):

   -14.2640 -12.7342 -12.7342  -8.9648  -7.9825  -2.1511  -2.1507  -1.9290
    -1.1654  -0.8809  -0.8806   0.2264   0.2265   2.2065   2.2660   3.0645
     7.0556   8.5980  12.4624  12.4643

          k = 0.0038 0.0039 0.5887 (  2360 PWs)   bands (ev):

   -13.5594 -12.0474 -12.0463  -8.3586  -7.4371  -3.5834  -2.9036  -2.9019
    -1.3000  -1.2994  -1.1091  -0.0799  -0.0670  -0.0032   0.7813   3.9171
     6.6672   9.5069  11.1520  11.1624

          k = 0.0075 0.0079 1.1775 (  2368 PWs)   bands (ev):

   -11.4870 -10.0494 -10.0476  -8.3207  -6.6074  -6.6052  -6.5545  -4.9043
    -3.6356  -2.2177  -1.1925  -1.1919   1.2259   2.0104   2.0332   4.4457
     6.4083   7.6171   7.6438  10.2576

          k = 0.0151 0.4611 0.0033 (  2370 PWs)   bands (ev):

   -14.0754 -13.5457 -11.6476 -10.2648  -6.4362  -4.3357  -2.0160  -1.8356
    -0.9978  -0.5154  -0.0667   0.7562   1.1143   1.5619   1.9195   2.3673
     7.9465   9.8342  10.0190  12.6055

          k = 0.0188 0.4650 0.5920 (  2367 PWs)   bands (ev):

   -13.3722 -12.8505 -10.9750  -9.6197  -6.0082  -4.2732  -3.3632  -2.6321
    -1.7548  -1.2021  -0.9999  -0.6619   0.1030   0.8143   1.5322   3.1349
     7.5419   9.2745  10.7656  12.7824

          k = 0.0226 0.4690 1.1808 (  2346 PWs)   bands (ev):

   -11.3075 -10.8105  -9.0916  -8.3539  -7.2937  -7.2798  -5.6264  -4.4671
    -3.8528  -2.3348  -1.5135  -0.9029   1.1335   1.3080   3.1195   4.0457
     6.6150   6.9095   8.8459   9.9213

          k = 0.0075 0.4532-1.1742 (  2345 PWs)   bands (ev):

   -11.3114 -10.8080  -9.0896  -8.3503  -7.2954  -7.2794  -5.6296  -4.4670
    -3.8540  -2.3352  -1.5122  -0.9028   1.1770   1.2866   3.1016   4.0167
     6.6064   6.9196   8.8855   9.9178

          k = 0.0113 0.4572-0.5854 (  2367 PWs)   bands (ev):

   -13.3745 -12.8490 -10.9733  -9.6195  -6.0089  -4.2737  -3.3602  -2.6339
    -1.7574  -1.1765  -1.0136  -0.6616   0.1033   0.8147   1.5108   3.1364
     7.5333   9.2909  10.6586  12.8170

          k =-0.5655-0.0117-0.0029 (  2372 PWs)   bands (ev):

   -13.8721 -13.8666 -10.9499 -10.9492  -5.4389  -5.4360  -1.7890  -1.7782
    -0.7989  -0.7929   0.8427   0.8441   1.1732   1.1773   1.5508   1.5535
     9.2354   9.2448  10.1196  10.1522

          k =-0.5617-0.0077 0.5858 (  2358 PWs)   bands (ev):

   -13.1719 -13.1660 -10.2912 -10.2897  -5.1434  -5.1402  -3.0826  -3.0769
    -1.1838  -1.1819  -0.9765  -0.9488   0.5777   0.5789   1.9437   1.9553
     8.6409   8.6578  10.9512  11.0635

          k =-0.5580-0.0038 1.1746 (  2351 PWs)   bands (ev):

   -11.1151 -11.1085  -8.6007  -8.5984  -7.4466  -7.4421  -5.0381  -5.0360
    -3.1007  -3.0982  -1.1300  -1.1288   1.3113   1.3544   3.4401   3.4461
     6.7384   6.7605   9.2141   9.2348

          k =-0.5504 0.4495 0.0004 (  2367 PWs)   bands (ev):

   -14.1579 -13.2396 -12.2488  -9.4563  -7.3974  -3.2550  -2.5829  -1.1153
    -1.0676  -0.7380  -0.1802   0.1238   0.6595   2.0387   2.1780   2.5506
     7.2015   9.9216  11.3830  12.0464

          k =-0.5467 0.4534 0.5891 (  2365 PWs)   bands (ev):

   -13.4562 -12.5441 -11.5673  -8.8359  -6.8845  -3.5535  -3.5125  -2.3253
    -2.0406  -1.7461  -0.5462  -0.2020   0.0533   0.8315   0.9144   3.3667
     6.8288  10.4624  10.8302  12.0616

          k =-0.5429 0.4573 1.1779 (  2353 PWs)   bands (ev):

   -11.3940 -10.5110  -9.6080  -8.2792  -7.0315  -6.8127  -6.1577  -4.5549
    -3.8978  -1.9682  -1.6865  -0.9199   0.6643   2.1489   2.8078   3.9570
     6.2767   7.6747   8.4633   9.9875

          k =-0.5580 0.4416-1.1771 (  2357 PWs)   bands (ev):

   -11.3964 -10.5113  -9.6044  -8.2770  -7.0318  -6.8117  -6.1610  -4.5563
    -3.8986  -1.9672  -1.6876  -0.9189   0.6892   2.1508   2.7773   3.9311
     6.2768   7.6668   8.5069   9.9909

          k =-0.5542 0.4455-0.5883 (  2363 PWs)   bands (ev):

   -13.4576 -12.5442 -11.5652  -8.8354  -6.8850  -3.5546  -3.5110  -2.3272
    -2.0403  -1.7319  -0.5464  -0.2029   0.0527   0.8322   0.8925   3.3611
     6.8307  10.4684  10.8328  12.0859

     the Fermi energy is     4.6621 ev

!    total energy              =     -91.15977271 Ry
     Harris-Foulkes estimate   =     -91.15977271 Ry
     estimated scf accuracy    <          2.0E-11 Ry

     The total energy is the sum of the following terms:

     one-electron contribution =     -51.25834925 Ry
     hartree contribution      =      39.29635329 Ry
     xc contribution           =     -27.95807337 Ry
     ewald contribution        =     -51.24018791 Ry
     smearing contrib. (-TS)   =       0.00048453 Ry

     convergence has been achieved in   8 iterations

     Forces acting on atoms (cartesian axes, Ry/au):

     atom    1 type  1   force =     0.00045335    0.00018204   -0.00015246
     atom    2 type  1   force =     0.00073531    0.00015424    0.00021569
     atom    3 type  1   force =    -0.00064613   -0.00024731    0.00008811
     atom    4 type  1   force =    -0.00054990   -0.00005780   -0.00013572
     atom    5 type  1   force =    -0.00064647   -0.00006386   -0.00015909
     atom    6 type  1   force =     0.00048690    0.00021939   -0.00003939
     atom    7 type  1   force =    -0.00029207   -0.00019035    0.00010548
     atom    8 type  1   force =     0.00045900    0.00000365    0.00007738

     Total force =     0.001663     Total SCF correction =     0.000003


     Computing stress (Cartesian axis) and pressure

          total   stress  (Ry/bohr**3)                   (kbar)     P=        0.13
   0.00000245  -0.00000175  -0.00000064            0.36       -0.26       -0.09
  -0.00000175   0.00000186  -0.00000070           -0.26        0.27       -0.10
  -0.00000064  -0.00000070  -0.00000159           -0.09       -0.10       -0.23


     bfgs converged in  35 scf cycles and  33 bfgs steps
     (criteria: energy <  1.0E-04 Ry, force <  1.0E-03Ry/Bohr, cell <  5.0E-01kbar)

     End of BFGS Geometry Optimization

     Final enthalpy =     -91.1597343095 Ry
Begin final coordinates
     new unit-cell volume =    564.86335 a.u.^3 (    83.70411 Ang^3 )
     density =      1.90447 g/cm^3

CELL_PARAMETERS (bohr)
  12.165663262  -0.396845399  -0.075165320
  -0.204671535   9.946952028  -0.065093005
  -0.023322924  -0.032693212   4.671360051

ATOMIC_POSITIONS (crystal)
C             0.0179140665        0.4365622610        0.4053020510
C             0.1835092446        0.2691911325        0.4050743680
C             0.5189554563        0.9379613982        0.4053336147
C             0.6860284146        0.7726519601        0.4055334143
C             0.7696043730        0.6888645715        0.9055413411
C             0.4345568560        0.0206462062        0.9052632380
C             0.9349904924        0.5212110456        0.9053457936
C             0.2672670966        0.1856504249        0.9050971793
End final coordinates



     Writing output data file ./pp.save/

     Final scf calculation at the relaxed structure.
     The G-vectors are recalculated for the final unit cell
     Results may differ from those at the preceding step.
 
     Parallelization info
     --------------------
     sticks:   dense  smooth     PW     G-vecs:    dense   smooth      PW
     Min          15      15      4                  199      199      32
     Max          16      16      5                  203      203      35
     Sum        1533    1533    461                19325    19325    3199
 


     bravais-lattice index     =            0
     lattice parameter (alat)  =      13.7499  a.u.
     unit-cell volume          =     564.8634 (a.u.)^3
     number of atoms/cell      =            8
     number of atomic types    =            1
     number of electrons       =        32.00
     number of Kohn-Sham states=           20
     kinetic-energy cutoff     =      40.0000  Ry
     charge density cutoff     =     160.0000  Ry
     convergence threshold     =      1.0E-10
     mixing beta               =       0.5000
     number of iterations used =            8  plain     mixing
     Exchange-correlation=  SLA  PW   PBE  PBE
                           (   1   4   3   4   0   0   0)

     celldm(1)=  13.749914  celldm(2)=   0.000000  celldm(3)=   0.000000
     celldm(4)=   0.000000  celldm(5)=   0.000000  celldm(6)=   0.000000

     crystal axes: (cart. coord. in units of alat)
               a(1) = (   0.884781  -0.028862  -0.005467 )  
               a(2) = (  -0.014885   0.723419  -0.004734 )  
               a(3) = (  -0.001696  -0.002378   0.339737 )  

     reciprocal axes: (cart. coord. in units 2 pi/alat)
               b(1) = (  1.131019  0.023310  0.005810 )  
               b(2) = (  0.045185  1.383319  0.009907 )  
               b(3) = (  0.018828  0.019651  2.943681 )  


     PseudoPot. # 1 for C  read from file:
     ./C.pbe-van_bm.upf
     MD5 check sum: 1a69bf6b8db32088f5b2163dbdb77a27
     Pseudo is Ultrasoft, Zval =  4.0
     Generated by new atomic code, or converted to UPF format
     Using radial grid of  721 points,  4 beta functions with: 
                l(1) =   0
                l(2) =   0
                l(3) =   1
                l(4) =   1
     Q(r) pseudized with  8 coefficients,  rinner =    0.800   0.800   0.800


     atomic species   valence    mass     pseudopotential
        C              4.00    12.00000     C ( 1.00)

     No symmetry found



   Cartesian axes

     site n.     atom                  positions (alat units)
         1           C   tau(   1) = (   0.0086642   0.3143368   0.1355316  )
         2           C   tau(   2) = (   0.1576714   0.1884785   0.1353414  )
         3           C   tau(   3) = (   0.4445126   0.6625976   0.1304297  )
         4           C   tau(   4) = (   0.5947959   0.5381871   0.1303668  )
         5           C   tau(   5) = (   0.6691414   0.4739727   0.3001780  )
         6           C   tau(   6) = (   0.3826448   0.0002414   0.3050785  )
         7           C   tau(   7) = (   0.8179678   0.3479161   0.3000012  )
         8           C   tau(   8) = (   0.2321742   0.1244373   0.3051554  )

     number of k points=    16  Marzari-Vanderbilt smearing, width (Ry)=  0.0200
                       cart. coord. in units 2pi/alat
        k(    1) = (   0.0000000   0.0000000   0.0000000), wk =   0.0666667
        k(    2) = (   0.0037657   0.0039302   0.5887363), wk =   0.1333333
        k(    3) = (   0.0075314   0.0078604   1.1774726), wk =   0.1333333
        k(    4) = (   0.0150617   0.4611063   0.0033023), wk =   0.1333333
        k(    5) = (   0.0188274   0.4650365   0.5920386), wk =   0.1333333
        k(    6) = (   0.0225931   0.4689667   1.1807749), wk =   0.1333333
        k(    7) = (   0.0075303   0.4532459  -1.1741702), wk =   0.1333333
        k(    8) = (   0.0112960   0.4571761  -0.5854340), wk =   0.1333333
        k(    9) = (  -0.5655097  -0.0116551  -0.0029050), wk =   0.0666667
        k(   10) = (  -0.5617440  -0.0077249   0.5858313), wk =   0.1333333
        k(   11) = (  -0.5579783  -0.0037947   1.1745675), wk =   0.1333333
        k(   12) = (  -0.5504480   0.4494512   0.0003973), wk =   0.1333333
        k(   13) = (  -0.5466823   0.4533814   0.5891336), wk =   0.1333333
        k(   14) = (  -0.5429166   0.4573116   1.1778699), wk =   0.1333333
        k(   15) = (  -0.5579794   0.4415908  -1.1770753), wk =   0.1333333
        k(   16) = (  -0.5542137   0.4455210  -0.5883390), wk =   0.1333333

     Dense  grid:    19325 G-vectors     FFT dimensions: (  50,  45,  20)

     Estimated max dynamical RAM per process >       1.56 MB

     Estimated total dynamical RAM >     149.35 MB

     Initial potential from superposition of free atoms

     starting charge   31.99968, renormalised to   32.00000
     Starting wfcs are   32 randomized atomic wfcs

     total cpu time spent up to now is     2083.9 secs

     Self-consistent Calculation

     iteration #  1     ecut=    40.00 Ry     beta= 0.50
     Davidson diagonalization with overlap
     c_bands:  2 eigenvalues not converged
     c_bands:  1 eigenvalues not converged
     c_bands:  1 eigenvalues not converged
     c_bands:  2 eigenvalues not converged
     c_bands:  2 eigenvalues not converged
     c_bands:  1 eigenvalues not converged
     c_bands:  1 eigenvalues not converged
     c_bands:  1 eigenvalues not converged
     ethr =  1.00E-06,  avg # of iterations = 14.4

     total cpu time spent up to now is     2141.1 secs

     total energy              =     -91.11976212 Ry
     Harris-Foulkes estimate   =     -91.50428195 Ry
     estimated scf accuracy    <       0.78797461 Ry

     iteration #  2     ecut=    40.00 Ry     beta= 0.50
     Davidson diagonalization with overlap
     ethr =  2.46E-03,  avg # of iterations =  2.1

     total cpu time spent up to now is     2153.1 secs

     total energy              =     -91.14789497 Ry
     Harris-Foulkes estimate   =     -91.17932343 Ry
     estimated scf accuracy    <       0.07012971 Ry

     iteration #  3     ecut=    40.00 Ry     beta= 0.50
     Davidson diagonalization with overlap
     ethr =  2.19E-04,  avg # of iterations =  2.7

     total cpu time spent up to now is     2167.8 secs

     total energy              =     -91.15902232 Ry
     Harris-Foulkes estimate   =     -91.15896469 Ry
     estimated scf accuracy    <       0.00189231 Ry

     iteration #  4     ecut=    40.00 Ry     beta= 0.50
     Davidson diagonalization with overlap
     ethr =  5.91E-06,  avg # of iterations =  3.2

     total cpu time spent up to now is     2184.3 secs

     total energy              =     -91.15925791 Ry
     Harris-Foulkes estimate   =     -91.15931221 Ry
     estimated scf accuracy    <       0.00015062 Ry

     iteration #  5     ecut=    40.00 Ry     beta= 0.50
     Davidson diagonalization with overlap
     ethr =  4.71E-07,  avg # of iterations =  2.2

     total cpu time spent up to now is     2197.5 secs

     total energy              =     -91.15929081 Ry
     Harris-Foulkes estimate   =     -91.15929118 Ry
     estimated scf accuracy    <       0.00000459 Ry

     iteration #  6     ecut=    40.00 Ry     beta= 0.50
     Davidson diagonalization with overlap
     ethr =  1.44E-08,  avg # of iterations =  2.7

     total cpu time spent up to now is     2212.6 secs

     total energy              =     -91.15929201 Ry
     Harris-Foulkes estimate   =     -91.15929218 Ry
     estimated scf accuracy    <       0.00000109 Ry

     iteration #  7     ecut=    40.00 Ry     beta= 0.50
     Davidson diagonalization with overlap
     ethr =  3.42E-09,  avg # of iterations =  2.0

     total cpu time spent up to now is     2225.9 secs

     total energy              =     -91.15929218 Ry
     Harris-Foulkes estimate   =     -91.15929217 Ry
     estimated scf accuracy    <       0.00000001 Ry

     iteration #  8     ecut=    40.00 Ry     beta= 0.50
     Davidson diagonalization with overlap
     ethr =  3.88E-11,  avg # of iterations =  3.1

     total cpu time spent up to now is     2242.1 secs

     total energy              =     -91.15929219 Ry
     Harris-Foulkes estimate   =     -91.15929219 Ry
     estimated scf accuracy    <          2.6E-09 Ry

     iteration #  9     ecut=    40.00 Ry     beta= 0.50
     Davidson diagonalization with overlap
     ethr =  8.17E-12,  avg # of iterations =  1.9

     total cpu time spent up to now is     2254.4 secs

     total energy              =     -91.15929219 Ry
     Harris-Foulkes estimate   =     -91.15929219 Ry
     estimated scf accuracy    <          6.6E-10 Ry

     iteration # 10     ecut=    40.00 Ry     beta= 0.50
     Davidson diagonalization with overlap
