
     Program PWSCF v.6.5 starts on  8Jul2022 at 19:14:15 

     This program is part of the open-source Quantum ESPRESSO suite
     for quantum simulation of materials; please cite
         "P. Giannozzi et al., J. Phys.:Condens. Matter 21 395502 (2009);
         "P. Giannozzi et al., J. Phys.:Condens. Matter 29 465901 (2017);
          URL http://www.quantum-espresso.org", 
     in publications or presentations arising from this work. More details at
     http://www.quantum-espresso.org/quote

     Parallel version (MPI), running on    96 processors

     MPI processes distributed on     2 nodes
     R & G space division:  proc/nbgrp/npool/nimage =      96
     Waiting for input...
     Reading input from standard input
     Message from routine read_cards :
     DEPRECATED: no units specified in CELL_PARAMETERS card

     Current dimensions of program PWSCF are:
     Max number of different atomic species (ntypx) = 10
     Max number of k-points (npk) =  40000
     Max angular momentum in pseudopotentials (lmaxx) =  3

     Subspace diagonalization in iterative solution of the eigenvalue problem:
     one sub-group per band group will be used
     scalapack distributed-memory algorithm (size of sub-group:  9*  9 procs)

 
     Parallelization info
     --------------------
     sticks:   dense  smooth     PW     G-vecs:    dense   smooth      PW
     Min          15      15      4                  190      190      32
     Max          16      16      5                  192      192      37
     Sum        1465    1465    463                18333    18333    3273
 


     bravais-lattice index     =            0
     lattice parameter (alat)  =      13.2800  a.u.
     unit-cell volume          =     535.1524 (a.u.)^3
     number of atoms/cell      =            8
     number of atomic types    =            1
     number of electrons       =        32.00
     number of Kohn-Sham states=           20
     kinetic-energy cutoff     =      40.0000  Ry
     charge density cutoff     =     160.0000  Ry
     convergence threshold     =      1.0E-06
     mixing beta               =       0.5000
     number of iterations used =            8  plain     mixing
     Exchange-correlation=  SLA  PW   PBE  PBE
                           (   1   4   3   4   0   0   0)
     nstep                     =          250


     celldm(1)=  13.280046  celldm(2)=   0.000000  celldm(3)=   0.000000
     celldm(4)=   0.000000  celldm(5)=   0.000000  celldm(6)=   0.000000

     crystal axes: (cart. coord. in units of alat)
               a(1) = (   0.999643  -0.026732   0.000173 )  
               a(2) = (  -0.006739   0.650269   0.000392 )  
               a(3) = (   0.000105   0.000045   0.351610 )  

     reciprocal axes: (cart. coord. in units 2 pi/alat)
               b(1) = (  1.000635  0.010371 -0.000301 )  
               b(2) = (  0.041135  1.538252 -0.000210 )  
               b(3) = ( -0.000539 -0.001718  2.844059 )  


     PseudoPot. # 1 for C  read from file:
     ./C.pbe-van_bm.upf
     MD5 check sum: 1a69bf6b8db32088f5b2163dbdb77a27
     Pseudo is Ultrasoft, Zval =  4.0
     Generated by new atomic code, or converted to UPF format
     Using radial grid of  721 points,  4 beta functions with: 
                l(1) =   0
                l(2) =   0
                l(3) =   1
                l(4) =   1
     Q(r) pseudized with  8 coefficients,  rinner =    0.800   0.800   0.800


     atomic species   valence    mass     pseudopotential
        C              4.00    12.00000     C ( 1.00)

     No symmetry found



   Cartesian axes

     site n.     atom                  positions (alat units)
         1           C   tau(   1) = (   0.4291516   0.4175067   0.1790658  )
         2           C   tau(   2) = (   0.0034894   0.0197508   0.1774316  )
         3           C   tau(   3) = (   0.9003962   0.1775896   0.1779394  )
         4           C   tau(   4) = (   0.5274342   0.2366144   0.1789413  )
         5           C   tau(   5) = (   0.2319647   0.3992121   0.1796815  )
         6           C   tau(   6) = (   0.7994039   0.6252545   0.1786274  )
         7           C   tau(   7) = (   0.7080815   0.1559871   0.1783242  )
         8           C   tau(   8) = (   0.3350629   0.2152520   0.1792179  )

     number of k points=    12  Marzari-Vanderbilt smearing, width (Ry)=  0.0200
                       cart. coord. in units 2pi/alat
        k(    1) = (   0.0000000   0.0000000   0.0000000), wk =   0.1250000
        k(    2) = (  -0.0001347  -0.0004295   0.7110147), wk =   0.2500000
        k(    3) = (   0.0002693   0.0008591  -1.4220294), wk =   0.1250000
        k(    4) = (  -0.0205675  -0.7691260   0.0001050), wk =   0.1250000
        k(    5) = (  -0.0207022  -0.7695555   0.7111197), wk =   0.2500000
        k(    6) = (  -0.0202982  -0.7682669  -1.4219244), wk =   0.1250000
        k(    7) = (  -0.5003174  -0.0051854   0.0001507), wk =   0.1250000
        k(    8) = (  -0.5004521  -0.0056150   0.7111654), wk =   0.2500000
        k(    9) = (  -0.5000481  -0.0043263  -1.4218787), wk =   0.1250000
        k(   10) = (  -0.5208850  -0.7743114   0.0002557), wk =   0.1250000
        k(   11) = (  -0.5210196  -0.7747409   0.7112703), wk =   0.2500000
        k(   12) = (  -0.5206156  -0.7734523  -1.4217737), wk =   0.1250000

     Dense  grid:    18333 G-vectors     FFT dimensions: (  54,  36,  20)

     Estimated max dynamical RAM per process >       2.36 MB

     Estimated total dynamical RAM >     226.80 MB

     Initial potential from superposition of free atoms

     starting charge   31.99968, renormalised to   32.00000
     Starting wfcs are   32 randomized atomic wfcs

     total cpu time spent up to now is        0.6 secs

     Self-consistent Calculation

     iteration #  1     ecut=    40.00 Ry     beta= 0.50
     Davidson diagonalization with overlap
     ethr =  1.00E-02,  avg # of iterations =  2.0

     total cpu time spent up to now is        1.2 secs

     total energy              =     -89.76462637 Ry
     Harris-Foulkes estimate   =     -89.99280705 Ry
     estimated scf accuracy    <       0.47087420 Ry

     iteration #  2     ecut=    40.00 Ry     beta= 0.50
     Davidson diagonalization with overlap
     ethr =  1.47E-03,  avg # of iterations =  2.0

     total cpu time spent up to now is        1.7 secs

     total energy              =     -89.79131975 Ry
     Harris-Foulkes estimate   =     -89.82157858 Ry
     estimated scf accuracy    <       0.05861976 Ry

     iteration #  3     ecut=    40.00 Ry     beta= 0.50
     Davidson diagonalization with overlap
     ethr =  1.83E-04,  avg # of iterations =  3.4

     total cpu time spent up to now is        2.5 secs

     total energy              =     -89.77441374 Ry
     Harris-Foulkes estimate   =     -89.83561031 Ry
     estimated scf accuracy    <       0.25256145 Ry

     iteration #  4     ecut=    40.00 Ry     beta= 0.50
     Davidson diagonalization with overlap
     ethr =  1.83E-04,  avg # of iterations =  3.0

     total cpu time spent up to now is        3.3 secs

     total energy              =     -89.80736296 Ry
     Harris-Foulkes estimate   =     -89.80917549 Ry
     estimated scf accuracy    <       0.00749652 Ry

     iteration #  5     ecut=    40.00 Ry     beta= 0.50
     Davidson diagonalization with overlap
     ethr =  2.34E-05,  avg # of iterations =  2.4

     total cpu time spent up to now is        3.8 secs

     total energy              =     -89.80806048 Ry
     Harris-Foulkes estimate   =     -89.80882814 Ry
     estimated scf accuracy    <       0.00248518 Ry

     iteration #  6     ecut=    40.00 Ry     beta= 0.50
     Davidson diagonalization with overlap
     ethr =  7.77E-06,  avg # of iterations =  2.5

     total cpu time spent up to now is        4.4 secs

     total energy              =     -89.80834583 Ry
     Harris-Foulkes estimate   =     -89.80857713 Ry
     estimated scf accuracy    <       0.00094627 Ry

     iteration #  7     ecut=    40.00 Ry     beta= 0.50
     Davidson diagonalization with overlap
     ethr =  2.96E-06,  avg # of iterations =  2.2

     total cpu time spent up to now is        4.9 secs

     total energy              =     -89.80848961 Ry
     Harris-Foulkes estimate   =     -89.80851059 Ry
     estimated scf accuracy    <       0.00013289 Ry

     iteration #  8     ecut=    40.00 Ry     beta= 0.50
     Davidson diagonalization with overlap
     ethr =  4.15E-07,  avg # of iterations =  2.2

     total cpu time spent up to now is        5.5 secs

     total energy              =     -89.80850702 Ry
     Harris-Foulkes estimate   =     -89.80851230 Ry
     estimated scf accuracy    <       0.00001905 Ry

     iteration #  9     ecut=    40.00 Ry     beta= 0.50
     Davidson diagonalization with overlap
     ethr =  5.95E-08,  avg # of iterations =  2.2

     total cpu time spent up to now is        6.1 secs

     total energy              =     -89.80850863 Ry
     Harris-Foulkes estimate   =     -89.80850978 Ry
     estimated scf accuracy    <       0.00000377 Ry

     iteration # 10     ecut=    40.00 Ry     beta= 0.50
     Davidson diagonalization with overlap
     ethr =  1.18E-08,  avg # of iterations =  2.5

     total cpu time spent up to now is        6.7 secs

     End of self-consistent calculation

          k = 0.0000 0.0000 0.0000 (  2301 PWs)   bands (ev):

   -15.9879 -15.5817 -10.5160  -7.8997  -5.7603  -4.5737  -4.5631  -1.4122
    -0.7283  -0.2248   1.9477   2.0018   2.3074   2.9393   3.3741   6.5963
     6.9935   8.8059   9.4404  10.5438

          k =-0.0001-0.0004 0.7110 (  2293 PWs)   bands (ev):

   -15.2821 -14.9270  -9.7760  -7.2873  -5.2759  -3.8198  -3.7015  -1.6520
    -0.9702  -0.4562  -0.1382   0.6792   2.8420   3.1220   3.6137   3.6671
     6.3874   6.9391   7.1045   8.3622

          k = 0.0003 0.0009-1.4220 (  2304 PWs)   bands (ev):

   -14.3705 -14.1026  -8.7727  -6.5227  -4.5970  -4.4895  -3.2371  -2.8066
    -2.4239  -0.0051   0.4416   0.4623   1.7041   3.5537   3.8205   4.2259
     4.3144   5.0993   5.1047   7.0042

          k =-0.0206-0.7691 0.0001 (  2300 PWs)   bands (ev):

   -15.9266 -15.5860 -10.5021  -8.1844  -5.5310  -5.3166  -4.6996  -1.1630
    -0.2959   0.5038   1.7885   1.8490   2.3585   3.3554   4.4897   6.6500
     7.0691   8.7977   9.2296  10.5461

          k =-0.0207-0.7696 0.7111 (  2283 PWs)   bands (ev):

   -15.2300 -14.9301  -9.7664  -7.5263  -5.0805  -4.4885  -3.8361  -1.4380
    -0.8744  -0.4267   0.1788   1.3458   2.4043   3.0208   3.9199   5.1829
     5.7753   6.8188   7.0951   8.1847

          k =-0.0203-0.7683-1.4219 (  2274 PWs)   bands (ev):

   -14.3338 -14.1041  -8.7693  -6.6917  -4.4818  -4.3387  -3.3274  -3.2698
    -2.5331   0.1340   0.6093   0.7083   2.5677   2.8500   3.6124   3.8524
     4.2609   4.4719   6.4458   7.7023

          k =-0.5003-0.0052 0.0002 (  2288 PWs)   bands (ev):

   -15.9383 -15.6445 -10.3906  -8.2063  -5.4971  -4.9506  -3.9208  -1.9266
    -0.5320  -0.4143   1.3530   2.3499   2.5531   3.2821   3.2914   7.1447
     7.3328   7.8829   9.3302  10.6312

          k =-0.5005-0.0056 0.7112 (  2292 PWs)   bands (ev):

   -15.2383 -14.9808  -9.6705  -7.5546  -5.0296  -4.1524  -3.1221  -1.5261
    -1.3506  -1.0697   0.2024   0.9299   2.2693   3.3189   3.4457   4.5137
     6.0466   7.0713   7.2009   8.5479

          k =-0.5000-0.0043-1.4219 (  2286 PWs)   bands (ev):

   -14.3370 -14.1419  -8.6935  -6.7254  -4.4206  -4.3903  -3.4426  -3.0407
    -1.9379  -0.5636   0.7864   0.8479   1.5581   3.1745   3.3748   4.5220
     4.6047   4.6929   5.2683   7.4148

          k =-0.5209-0.7743 0.0003 (  2294 PWs)   bands (ev):

   -15.8951 -15.6234 -10.4916  -8.0989  -5.7859  -5.6791  -3.8430  -1.7977
    -0.1589   0.8789   0.9150   2.3790   2.7922   3.3230   4.1252   7.0333
     7.4090   8.1019   9.4413  10.6422

          k =-0.5210-0.7747 0.7113 (  2280 PWs)   bands (ev):

   -15.2016 -14.9632  -9.7545  -7.4705  -5.2520  -4.8073  -3.0648  -1.4009
    -1.2960  -0.7412   0.3662   1.4964   2.2262   3.2128   4.1727   4.6404
     6.1963   6.9860   7.2485   8.5107

          k =-0.5206-0.7735-1.4218 (  2286 PWs)   bands (ev):

   -14.3108 -14.1303  -8.7534  -6.6809  -4.5590  -4.2877  -3.5666  -3.3518
    -1.8947  -0.4744   0.5306   0.9548   2.7880   2.8066   3.4315   3.9949
     4.5758   4.6257   6.1966   6.7009

     the Fermi energy is     4.7696 ev

!    total energy              =     -89.80850917 Ry
     Harris-Foulkes estimate   =     -89.80850938 Ry
     estimated scf accuracy    <       0.00000037 Ry

     The total energy is the sum of the following terms:

     one-electron contribution =     -27.59186777 Ry
     hartree contribution      =      27.83849054 Ry
     xc contribution           =     -27.04402352 Ry
     ewald contribution        =     -63.01256776 Ry
     smearing contrib. (-TS)   =       0.00145935 Ry

     convergence has been achieved in  10 iterations

     Forces acting on atoms (cartesian axes, Ry/au):

     atom    1 type  1   force =     0.04812836    0.00856621    0.00008056
     atom    2 type  1   force =    -0.02364924    0.04724345    0.00044471
     atom    3 type  1   force =     0.09228747   -0.00685447    0.00000558
     atom    4 type  1   force =     0.05786977    0.03051268   -0.00009940
     atom    5 type  1   force =     0.02506481   -0.04630011   -0.00054361
     atom    6 type  1   force =    -0.04891585   -0.00713840   -0.00010348
     atom    7 type  1   force =    -0.05915806   -0.03070639    0.00008314
     atom    8 type  1   force =    -0.09162725    0.00467702    0.00013250

     Total force =     0.190003     Total SCF correction =     0.001454


     Computing stress (Cartesian axis) and pressure

          total   stress  (Ry/bohr**3)                   (kbar)     P=       39.52
   0.00015318   0.00100439   0.00000497           22.53      147.75        0.73
   0.00100439  -0.00020796   0.00000065          147.75      -30.59        0.10
   0.00000497   0.00000065   0.00086063            0.73        0.10      126.60


     BFGS Geometry Optimization

     number of scf cycles    =   1
     number of bfgs steps    =   0

     enthalpy new            =     -89.8084727898 Ry

     new trust radius        =       0.1186400371 bohr
     new conv_thr            =       0.0000010000 Ry

     new unit-cell volume =    545.55969 a.u.^3 (    80.84360 Ang^3 )
     density =      1.97185 g/cm^3

CELL_PARAMETERS (bohr)
  13.317202533  -0.019815179   0.003994669
   0.126995184   8.588440840   0.005440263
   0.002001114   0.000707474   4.769858305

ATOMIC_POSITIONS (crystal)
C             0.4373330997        0.6609873168        0.5083391932
C             0.0018979432        0.0358870339        0.5046800859
C             0.9097043928        0.3096698957        0.5052783375
C             0.5345532455        0.3893445935        0.5082014171
C             0.2380504571        0.6183076202        0.5101025529
C             0.8026506791        0.9936666308        0.5065027475
C             0.7056135323        0.2652969792        0.5065391786
C             0.3305536503        0.3451149298        0.5091874873



     Writing output data file ./pp.save/
     NEW-OLD atomic charge density approx. for the potential
     extrapolated charge   32.61044, renormalised to   32.00000

     total cpu time spent up to now is        6.9 secs

     Self-consistent Calculation

     iteration #  1     ecut=    40.00 Ry     beta= 0.50
     Davidson diagonalization with overlap
     ethr =  1.00E-06,  avg # of iterations = 10.7

     total cpu time spent up to now is        9.3 secs

     total energy              =     -89.80155339 Ry
     Harris-Foulkes estimate   =     -89.43976831 Ry
     estimated scf accuracy    <       0.05187173 Ry

     iteration #  2     ecut=    40.00 Ry     beta= 0.50
     Davidson diagonalization with overlap
     ethr =  1.62E-04,  avg # of iterations =  4.1

     total cpu time spent up to now is       10.2 secs

     total energy              =     -89.81625094 Ry
     Harris-Foulkes estimate   =     -89.86318376 Ry
     estimated scf accuracy    <       0.17054898 Ry

     iteration #  3     ecut=    40.00 Ry     beta= 0.50
     Davidson diagonalization with overlap
     ethr =  1.62E-04,  avg # of iterations =  3.2

     total cpu time spent up to now is       11.0 secs

     total energy              =     -89.83169635 Ry
     Harris-Foulkes estimate   =     -89.83630541 Ry
     estimated scf accuracy    <       0.01212866 Ry

     iteration #  4     ecut=    40.00 Ry     beta= 0.50
     Davidson diagonalization with overlap
     ethr =  3.79E-05,  avg # of iterations =  2.7

     total cpu time spent up to now is       11.6 secs

     total energy              =     -89.83211737 Ry
     Harris-Foulkes estimate   =     -89.83392437 Ry
     estimated scf accuracy    <       0.00509215 Ry

     iteration #  5     ecut=    40.00 Ry     beta= 0.50
     Davidson diagonalization with overlap
     ethr =  1.59E-05,  avg # of iterations =  2.2

     total cpu time spent up to now is       12.2 secs

     total energy              =     -89.83275306 Ry
     Harris-Foulkes estimate   =     -89.83301055 Ry
     estimated scf accuracy    <       0.00063375 Ry

     iteration #  6     ecut=    40.00 Ry     beta= 0.50
     Davidson diagonalization with overlap
     ethr =  1.98E-06,  avg # of iterations =  3.2

     total cpu time spent up to now is       13.0 secs

     total energy              =     -89.83288765 Ry
     Harris-Foulkes estimate   =     -89.83293892 Ry
     estimated scf accuracy    <       0.00018817 Ry

     iteration #  7     ecut=    40.00 Ry     beta= 0.50
     Davidson diagonalization with overlap
     ethr =  5.88E-07,  avg # of iterations =  1.4

     total cpu time spent up to now is       13.5 secs

     total energy              =     -89.83289322 Ry
     Harris-Foulkes estimate   =     -89.83290271 Ry
     estimated scf accuracy    <       0.00003033 Ry

     iteration #  8     ecut=    40.00 Ry     beta= 0.50
     Davidson diagonalization with overlap
     ethr =  9.48E-08,  avg # of iterations =  2.8

     total cpu time spent up to now is       14.2 secs

     total energy              =     -89.83289661 Ry
     Harris-Foulkes estimate   =     -89.83290337 Ry
     estimated scf accuracy    <       0.00002957 Ry

     iteration #  9     ecut=    40.00 Ry     beta= 0.50
     Davidson diagonalization with overlap
     ethr =  9.24E-08,  avg # of iterations =  1.2

     total cpu time spent up to now is       14.7 secs

     total energy              =     -89.83289988 Ry
     Harris-Foulkes estimate   =     -89.83290041 Ry
     estimated scf accuracy    <       0.00000202 Ry

     iteration # 10     ecut=    40.00 Ry     beta= 0.50
     Davidson diagonalization with overlap
     ethr =  6.30E-09,  avg # of iterations =  2.2

     total cpu time spent up to now is       15.3 secs

     End of self-consistent calculation

          k = 0.0000 0.0000 0.0000 (  2301 PWs)   bands (ev):

   -15.8955 -15.4347 -10.8817  -7.5238  -5.7755  -4.9995  -4.7579  -1.7484
    -0.7584  -0.5458   1.4834   1.8361   1.8762   3.0495   3.1866   6.2089
     6.2824   8.2215   9.4918   9.7897

          k =-0.0002-0.0004 0.6960 (  2293 PWs)   bands (ev):

   -15.2520 -14.8444 -10.2321  -6.9773  -5.3113  -4.3045  -4.0126  -1.8619
    -1.2752  -0.6359  -0.2874   0.3963   2.6065   2.6266   3.1365   3.8731
     6.1984   6.6668   6.8921   7.6996

          k = 0.0004 0.0009-1.3921 (  2304 PWs)   bands (ev):

   -14.4372 -14.1165  -9.3821  -6.3107  -4.7124  -4.4324  -3.3855  -3.0586
    -2.9462  -0.6034   0.2212   0.2333   1.3072   3.2613   3.8811   4.1250
     4.1687   4.4934   5.0897   7.2061

          k =-0.0012-0.7731 0.0001 (  2300 PWs)   bands (ev):

   -15.8319 -15.4419 -10.8420  -7.7856  -5.7894  -5.5699  -4.9508  -1.4887
    -0.5495   0.3654   1.7250   1.7528   1.8911   3.0234   4.5853   5.9819
     6.2996   8.2014   9.3025   9.7616

          k =-0.0014-0.7736 0.6962 (  2283 PWs)   bands (ev):

   -15.1976 -14.8502 -10.1992  -7.1988  -5.1062  -5.0177  -4.2318  -1.6389
    -1.0507  -0.7399  -0.1019   1.2687   2.2208   2.7968   3.4990   5.2000
     5.8170   6.2757   6.5441   7.4314

          k =-0.0007-0.7722-1.3920 (  2274 PWs)   bands (ev):

   -14.3978 -14.1201  -9.3592  -6.4734  -4.5700  -4.2748  -3.9548  -3.1484
    -3.1019  -0.4548   0.3863   0.4518   2.2461   3.3311   3.4795   3.6243
     3.7902   3.9558   6.2956   7.4071

          k =-0.4986 0.0074 0.0002 (  2288 PWs)   bands (ev):

   -15.8400 -15.5083 -10.7571  -7.9542  -5.2329  -5.2078  -4.4249  -2.2571
    -0.7247  -0.4646   0.8211   1.8815   2.3592   2.9471   3.6061   6.3927
     6.8734   7.3716   9.2092   9.8639

          k =-0.4988 0.0069 0.6962 (  2292 PWs)   bands (ev):

   -15.2023 -14.9082 -10.1283  -7.3540  -4.8352  -4.5148  -3.6664  -1.7460
    -1.7072  -1.2130   0.0315   0.7745   1.7273   3.1475   3.1594   4.4768
     6.0797   6.5946   6.7272   8.0022

          k =-0.4982 0.0082-1.3919 (  2286 PWs)   bands (ev):

   -14.3975 -14.1651  -9.3052  -6.6037  -4.3756  -4.3291  -3.5487  -3.2966
    -2.5913  -1.1364   0.5191   0.7013   1.2080   2.7741   3.3740   4.3141
     4.3658   4.3828   5.3382   7.6037

          k =-0.4997-0.7657 0.0003 (  2294 PWs)   bands (ev):

   -15.8001 -15.4812 -10.8165  -7.8113  -5.9657  -5.5473  -4.5304  -2.3447
    -0.0710   0.8012   0.9956   1.9094   2.4761   2.9915   4.1771   6.2964
     6.6575   7.5484   9.2922   9.8350

          k =-0.5000-0.7662 0.6964 (  2280 PWs)   bands (ev):

   -15.1684 -14.8856 -10.1748  -7.2368  -5.1795  -5.0918  -3.7874  -1.8549
    -1.5956  -0.7805   0.3424   1.3560   2.2040   2.8861   3.7188   4.6501
     5.9301   6.6530   6.7428   7.7839

          k =-0.4993-0.7649-1.3918 (  2286 PWs)   bands (ev):

   -14.3728 -14.1497  -9.3354  -6.5302  -4.5352  -4.2301  -4.0900  -3.1794
    -2.7130  -1.1727   0.4363   0.7701   2.5313   2.6946   3.3228   4.1973
     4.2095   4.2156   6.0094   6.8331

     the Fermi energy is     4.6212 ev

!    total energy              =     -89.83289997 Ry
     Harris-Foulkes estimate   =     -89.83290019 Ry
     estimated scf accuracy    <       0.00000029 Ry

     The total energy is the sum of the following terms:

     one-electron contribution =     -28.86120130 Ry
     hartree contribution      =      28.24317919 Ry
     xc contribution           =     -27.01970268 Ry
     ewald contribution        =     -62.19663416 Ry
     smearing contrib. (-TS)   =       0.00145898 Ry

     convergence has been achieved in  10 iterations

     Forces acting on atoms (cartesian axes, Ry/au):

     atom    1 type  1   force =    -0.01265948    0.01372003    0.00013876
     atom    2 type  1   force =     0.00902557   -0.03595546    0.00046002
     atom    3 type  1   force =    -0.04892342    0.02035407    0.00032356
     atom    4 type  1   force =    -0.11718379    0.03813064    0.00020169
     atom    5 type  1   force =    -0.00917052    0.03687363   -0.00049439
     atom    6 type  1   force =     0.01303912   -0.01375693   -0.00024637
     atom    7 type  1   force =     0.11688630   -0.03752530   -0.00027478
     atom    8 type  1   force =     0.04898622   -0.02184067   -0.00010849

     Total force =     0.198664     Total SCF correction =     0.001346


     Computing stress (Cartesian axis) and pressure

          total   stress  (Ry/bohr**3)                   (kbar)     P=       39.66
  -0.00018340  -0.00011070   0.00000316          -26.98      -16.28        0.46
  -0.00011070   0.00050525   0.00000336          -16.28       74.33        0.49
   0.00000316   0.00000336   0.00048693            0.46        0.49       71.63


     number of scf cycles    =   2
     number of bfgs steps    =   1

     enthalpy old            =     -89.8084727898 Ry
     enthalpy new            =     -89.8328628792 Ry

     CASE: enthalpy_new < enthalpy_old

     new trust radius        =       0.0775203154 bohr
     new conv_thr            =       0.0000010000 Ry

     new unit-cell volume =    556.84627 a.u.^3 (    82.51610 Ang^3 )
     density =      1.93189 g/cm^3

CELL_PARAMETERS (bohr)
  13.284307518   0.041449622   0.005238793
   0.171654205   8.659324127   0.006093128
   0.002444451   0.001034038   4.841048273

ATOMIC_POSITIONS (crystal)
C             0.4376829836        0.6624408634        0.5083648414
C             0.0018379825        0.0343691638        0.5047844607
C             0.9089624724        0.3110607815        0.5053295513
C             0.5292480169        0.3931698975        0.5082244677
C             0.2381347685        0.6199365912        0.5099863548
C             0.8023055645        0.9922582259        0.5064580315
C             0.7108753130        0.2615150175        0.5065031337
C             0.3313098987        0.3435244592        0.5091801589



     Writing output data file ./pp.save/
     NEW-OLD atomic charge density approx. for the potential
     extrapolated charge   32.64859, renormalised to   32.00000

     total cpu time spent up to now is       15.3 secs

     Self-consistent Calculation

     iteration #  1     ecut=    40.00 Ry     beta= 0.50
     Davidson diagonalization with overlap
     ethr =  1.00E-06,  avg # of iterations =  8.5

     total cpu time spent up to now is       17.5 secs

     total energy              =     -89.81552665 Ry
     Harris-Foulkes estimate   =     -89.39826870 Ry
     estimated scf accuracy    <       0.02692496 Ry

     iteration #  2     ecut=    40.00 Ry     beta= 0.50
     Davidson diagonalization with overlap
     ethr =  8.41E-05,  avg # of iterations =  4.0

     total cpu time spent up to now is       18.6 secs

     total energy              =     -89.83300050 Ry
     Harris-Foulkes estimate   =     -89.86545329 Ry
     estimated scf accuracy    <       0.12695373 Ry

     iteration #  3     ecut=    40.00 Ry     beta= 0.50
     Davidson diagonalization with overlap
     ethr =  8.41E-05,  avg # of iterations =  3.0

     total cpu time spent up to now is       19.4 secs

     total energy              =     -89.84300961 Ry
     Harris-Foulkes estimate   =     -89.84538768 Ry
     estimated scf accuracy    <       0.00913765 Ry

     iteration #  4     ecut=    40.00 Ry     beta= 0.50
     Davidson diagonalization with overlap
     ethr =  2.86E-05,  avg # of iterations =  1.2

     total cpu time spent up to now is       19.9 secs

     total energy              =     -89.84220763 Ry
     Harris-Foulkes estimate   =     -89.84364786 Ry
     estimated scf accuracy    <       0.00494866 Ry

     iteration #  5     ecut=    40.00 Ry     beta= 0.50
     Davidson diagonalization with overlap
     ethr =  1.55E-05,  avg # of iterations =  1.7

     total cpu time spent up to now is       20.5 secs

     total energy              =     -89.84208574 Ry
     Harris-Foulkes estimate   =     -89.84259563 Ry
     estimated scf accuracy    <       0.00113936 Ry

     iteration #  6     ecut=    40.00 Ry     beta= 0.50
     Davidson diagonalization with overlap
     ethr =  3.56E-06,  avg # of iterations =  3.1

     total cpu time spent up to now is       21.4 secs

     total energy              =     -89.84241571 Ry
     Harris-Foulkes estimate   =     -89.84245727 Ry
     estimated scf accuracy    <       0.00015690 Ry

     iteration #  7     ecut=    40.00 Ry     beta= 0.50
     Davidson diagonalization with overlap
     ethr =  4.90E-07,  avg # of iterations =  2.2

     total cpu time spent up to now is       22.1 secs

     total energy              =     -89.84241324 Ry
     Harris-Foulkes estimate   =     -89.84242976 Ry
     estimated scf accuracy    <       0.00002761 Ry

     iteration #  8     ecut=    40.00 Ry     beta= 0.50
     Davidson diagonalization with overlap
     ethr =  8.63E-08,  avg # of iterations =  3.6

     total cpu time spent up to now is       23.2 secs

     total energy              =     -89.84241896 Ry
     Harris-Foulkes estimate   =     -89.84243820 Ry
     estimated scf accuracy    <       0.00005600 Ry

     iteration #  9     ecut=    40.00 Ry     beta= 0.50
     Davidson diagonalization with overlap
     ethr =  8.63E-08,  avg # of iterations =  2.8

     total cpu time spent up to now is       24.0 secs

     total energy              =     -89.84242586 Ry
     Harris-Foulkes estimate   =     -89.84242618 Ry
     estimated scf accuracy    <       0.00000101 Ry

     iteration # 10     ecut=    40.00 Ry     beta= 0.50
     Davidson diagonalization with overlap
     ethr =  3.14E-09,  avg # of iterations =  3.3

     total cpu time spent up to now is       25.0 secs

     End of self-consistent calculation

          k = 0.0000 0.0000 0.0000 (  2301 PWs)   bands (ev):

   -16.0612 -15.6422 -10.5089  -7.5610  -5.5817  -5.3450  -5.0813  -1.8834
    -1.1033  -0.5679   1.2697   1.4806   1.6400   2.5505   3.1025   6.2409
     6.3050   7.6652   9.0020   9.2645

          k =-0.0003-0.0005 0.6858 (  2293 PWs)   bands (ev):

   -15.4740 -15.1029  -9.8857  -7.0530  -5.1266  -4.7040  -4.4095  -1.9594
    -1.4529  -0.8804  -0.7001   0.3174   2.3239   2.3361   3.2747   3.7371
     6.0676   6.2716   6.5084   7.4793

          k = 0.0005 0.0010-1.3716 (  2304 PWs)   bands (ev):

   -14.7458 -14.4494  -9.0782  -6.4392  -4.5145  -4.4402  -3.8742  -3.4507
    -3.1704  -0.8313  -0.2548   0.4973   1.1590   2.9455   3.4988   3.9218
     4.0098   4.2693   4.8539   7.3094

          k = 0.0024-0.7669 0.0002 (  2300 PWs)   bands (ev):

   -16.0019 -15.6499 -10.4547  -7.8492  -6.0603  -5.5321  -5.0286  -1.6204
    -0.9528   0.2368   1.4620   1.5379   1.6199   2.5243   4.4752   5.7868
     6.3531   7.6389   8.7757   9.1970

          k = 0.0021-0.7673 0.6860 (  2283 PWs)   bands (ev):

   -15.4234 -15.1092  -9.8403  -7.2977  -5.3488  -4.9454  -4.5189  -1.7670
    -1.2344  -0.9713  -0.5575   1.0714   2.1849   2.4695   3.5054   5.0952
     5.5461   5.9113   6.1531   7.1183

          k = 0.0029-0.7659-1.3714 (  2274 PWs)   bands (ev):

   -14.7086 -14.4535  -9.0450  -6.6216  -4.3923  -4.3485  -4.2806  -3.6055
    -3.2156  -0.6797  -0.1323   0.7553   1.9703   3.1139   3.2327   3.2550
     3.6498   3.7544   6.0274   7.1560

          k =-0.4999 0.0099 0.0003 (  2288 PWs)   bands (ev):

   -16.0090 -15.7089 -10.3622  -8.0086  -5.5689  -4.9814  -4.7735  -2.3793
    -0.8214  -0.8149   0.6369   1.5296   2.1059   2.4540   3.5457   6.4453
     6.9275   6.9497   8.7047   9.3397

          k =-0.5001 0.0094 0.6861 (  2292 PWs)   bands (ev):

   -15.4276 -15.1606  -9.7608  -7.4464  -4.9044  -4.6205  -4.0931  -1.9077
    -1.8397  -1.4023  -0.3607   0.5452   1.5364   2.8518   3.2369   4.4362
     5.7910   6.2734   6.3398   7.8542

          k =-0.4993 0.0109-1.3714 (  2286 PWs)   bands (ev):

   -14.7088 -14.4936  -8.9807  -6.7488  -4.3313  -4.1563  -4.0309  -3.3988
    -3.1427  -1.3482   0.0737   0.9743   1.0080   2.4849   3.2179   3.9273
     4.1147   4.1596   5.1234   7.6818

          k =-0.4975-0.7569 0.0004 (  2294 PWs)   bands (ev):

   -15.9736 -15.6837 -10.4392  -7.8342  -6.2515  -5.4215  -4.7664  -2.4573
    -0.4492   0.7149   0.7791   1.5560   2.2581   2.4970   4.0641   6.3246
     6.4739   7.0164   8.8378   9.2505

          k =-0.4977-0.7574 0.6862 (  2280 PWs)   bands (ev):

   -15.3974 -15.1395  -9.8233  -7.3009  -5.5214  -4.9432  -4.1322  -2.0073
    -1.7262  -1.0233  -0.0908   1.2391   1.9102   2.8521   3.6214   4.4949
     5.6527   6.2584   6.3808   7.4999

          k =-0.4969-0.7560-1.3712 (  2286 PWs)   bands (ev):

   -14.6865 -14.4789  -9.0249  -6.6514  -4.5333  -4.3557  -4.2368  -3.2842
    -3.2060  -1.3814   0.2847   0.6876   2.3145   2.3892   3.1842   3.8757
     3.9582   4.0282   5.7450   6.9322

     the Fermi energy is     4.5066 ev

!    total energy              =     -89.84242606 Ry
     Harris-Foulkes estimate   =     -89.84242620 Ry
     estimated scf accuracy    <       0.00000018 Ry

     The total energy is the sum of the following terms:

     one-electron contribution =     -30.10830172 Ry
     hartree contribution      =      28.64823040 Ry
     xc contribution           =     -26.97663258 Ry
     ewald contribution        =     -61.40655603 Ry
     smearing contrib. (-TS)   =       0.00083387 Ry

     convergence has been achieved in  10 iterations

     Forces acting on atoms (cartesian axes, Ry/au):

     atom    1 type  1   force =    -0.03327308    0.03219443    0.00004136
     atom    2 type  1   force =     0.01852104   -0.03194276    0.00039877
     atom    3 type  1   force =    -0.00756530   -0.00092378    0.00021088
     atom    4 type  1   force =     0.06552314   -0.05024583   -0.00023962
     atom    5 type  1   force =    -0.01830329    0.03193922   -0.00042189
     atom    6 type  1   force =     0.03345221   -0.03253968   -0.00014569
     atom    7 type  1   force =    -0.06497125    0.05084169    0.00018944
     atom    8 type  1   force =     0.00661652    0.00067672   -0.00003324

     Total force =     0.144107     Total SCF correction =     0.000745


     Computing stress (Cartesian axis) and pressure

          total   stress  (Ry/bohr**3)                   (kbar)     P=       29.75
  -0.00006622  -0.00006398   0.00000223           -9.74       -9.41        0.33
  -0.00006398   0.00043934   0.00000259           -9.41       64.63        0.38
   0.00000223   0.00000259   0.00023352            0.33        0.38       34.35


     number of scf cycles    =   3
     number of bfgs steps    =   2

     enthalpy old            =     -89.8328628792 Ry
     enthalpy new            =     -89.8423882033 Ry

     CASE: enthalpy_new < enthalpy_old

     new trust radius        =       0.0631309537 bohr
     new conv_thr            =       0.0000006552 Ry

     new unit-cell volume =    568.17578 a.u.^3 (    84.19496 Ang^3 )
     density =      1.89336 g/cm^3

CELL_PARAMETERS (bohr)
  13.248770251   0.019879332   0.006250585
   0.164889150   8.773967846   0.006840808
   0.002809144   0.001417997   4.887914171

ATOMIC_POSITIONS (crystal)
C             0.4356618837        0.6658071340        0.5083799492
C             0.0029705697        0.0304172256        0.5048986669
C             0.9076324407        0.3116202979        0.5053904276
C             0.5302342009        0.3903898408        0.5081999019
C             0.2370181844        0.6239321134        0.5098642574
C             0.8043431849        0.9888696314        0.5064162288
C             0.7099107508        0.2643747342        0.5065130943
C             0.3325857848        0.3428640227        0.5091684739



     Writing output data file ./pp.save/
     NEW-OLD atomic charge density approx. for the potential
     extrapolated charge   32.63808, renormalised to   32.00000

     total cpu time spent up to now is       25.1 secs

     Self-consistent Calculation

     iteration #  1     ecut=    40.00 Ry     beta= 0.50
     Davidson diagonalization with overlap
     ethr =  1.00E-06,  avg # of iterations =  9.2

     total cpu time spent up to now is       27.9 secs

     total energy              =     -89.81281885 Ry
     Harris-Foulkes estimate   =     -89.42077836 Ry
     estimated scf accuracy    <       0.03966469 Ry

     iteration #  2     ecut=    40.00 Ry     beta= 0.50
     Davidson diagonalization with overlap
     ethr =  1.24E-04,  avg # of iterations =  3.8

     total cpu time spent up to now is       29.2 secs

     total energy              =     -89.83244212 Ry
     Harris-Foulkes estimate   =     -89.87511934 Ry
     estimated scf accuracy    <       0.15782395 Ry

     iteration #  3     ecut=    40.00 Ry     beta= 0.50
     Davidson diagonalization with overlap
     ethr =  1.24E-04,  avg # of iterations =  3.0

     total cpu time spent up to now is       30.3 secs

     total energy              =     -89.84788537 Ry
     Harris-Foulkes estimate   =     -89.85061538 Ry
     estimated scf accuracy    <       0.00794592 Ry

     iteration #  4     ecut=    40.00 Ry     beta= 0.50
     Davidson diagonalization with overlap
     ethr =  2.48E-05,  avg # of iterations =  2.2

     total cpu time spent up to now is       31.1 secs

     total energy              =     -89.84812931 Ry
     Harris-Foulkes estimate   =     -89.84893640 Ry
     estimated scf accuracy    <       0.00359549 Ry

     iteration #  5     ecut=    40.00 Ry     beta= 0.50
     Davidson diagonalization with overlap
     ethr =  1.12E-05,  avg # of iterations =  1.2

     total cpu time spent up to now is       31.8 secs

     total energy              =     -89.84763006 Ry
     Harris-Foulkes estimate   =     -89.84834887 Ry
     estimated scf accuracy    <       0.00147766 Ry

     iteration #  6     ecut=    40.00 Ry     beta= 0.50
     Davidson diagonalization with overlap
     ethr =  4.62E-06,  avg # of iterations =  2.7

     total cpu time spent up to now is       32.9 secs

     total energy              =     -89.84800070 Ry
     Harris-Foulkes estimate   =     -89.84806059 Ry
     estimated scf accuracy    <       0.00015923 Ry

     iteration #  7     ecut=    40.00 Ry     beta= 0.50
     Davidson diagonalization with overlap
     ethr =  4.98E-07,  avg # of iterations =  2.0

     total cpu time spent up to now is       33.9 secs

     total energy              =     -89.84802070 Ry
     Harris-Foulkes estimate   =     -89.84802836 Ry
     estimated scf accuracy    <       0.00001971 Ry

     iteration #  8     ecut=    40.00 Ry     beta= 0.50
     Davidson diagonalization with overlap
     ethr =  6.16E-08,  avg # of iterations =  2.6

     total cpu time spent up to now is       35.0 secs

     total energy              =     -89.84802428 Ry
     Harris-Foulkes estimate   =     -89.84802550 Ry
     estimated scf accuracy    <       0.00000443 Ry

     iteration #  9     ecut=    40.00 Ry     beta= 0.50
     Davidson diagonalization with overlap
     ethr =  1.39E-08,  avg # of iterations =  1.4

     total cpu time spent up to now is       35.8 secs

     total energy              =     -89.84802427 Ry
     Harris-Foulkes estimate   =     -89.84802478 Ry
     estimated scf accuracy    <       0.00000140 Ry

     iteration # 10     ecut=    40.00 Ry     beta= 0.50
     Davidson diagonalization with overlap
     ethr =  4.39E-09,  avg # of iterations =  2.6

     total cpu time spent up to now is       36.9 secs

     End of self-consistent calculation

          k = 0.0000 0.0000 0.0000 (  2301 PWs)   bands (ev):

   -15.9186 -15.4623 -10.6698  -7.5926  -5.6342  -5.4142  -5.3026  -2.0129
    -1.1261  -0.6739   1.2657   1.3283   1.4882   2.4777   2.9322   5.8844
     6.0487   7.4540   8.6357   8.9133

          k =-0.0003-0.0005 0.6792 (  2293 PWs)   bands (ev):

   -15.3471 -14.9399 -10.0809  -7.1003  -5.2371  -4.8002  -4.6062  -2.0267
    -1.5791  -0.8569  -0.7305   0.1905   2.1439   2.2614   3.0256   3.5478
     5.9523   6.0109   6.2082   7.2525

          k = 0.0006 0.0010-1.3585 (  2304 PWs)   bands (ev):

   -14.6407 -14.3096  -9.3288  -6.5084  -4.6984  -4.4102  -4.0119  -3.6546
    -3.0816  -0.9849  -0.2961   0.3715   0.9900   2.8623   3.2437   3.7279
     3.7290   4.3611   4.5955   7.0206

          k = 0.0011-0.7568 0.0002 (  2300 PWs)   bands (ev):

   -15.8578 -15.4718 -10.6272  -7.9326  -6.0518  -5.5008  -5.2929  -1.7270
    -0.9149   0.1053   1.3292   1.3849   1.4675   2.4471   4.3204   5.4982
     5.9987   7.3470   8.3741   8.8957

          k = 0.0008-0.7573 0.6794 (  2283 PWs)   bands (ev):

   -15.2949 -14.9477 -10.0461  -7.3900  -5.3765  -4.9580  -4.7785  -1.8247
    -1.3479  -0.9545  -0.5384   0.8940   2.0048   2.3066   3.2757   4.9042
     5.1873   5.8394   5.9272   6.8668

          k = 0.0018-0.7558-1.3582 (  2274 PWs)   bands (ev):

   -14.6016 -14.3149  -9.3045  -6.7258  -4.5112  -4.4794  -4.2534  -3.7953
    -3.1352  -0.8145  -0.1342   0.6229   1.7601   2.9098   2.9142   3.0363
     3.6042   3.7787   5.7975   6.8056

          k =-0.5012 0.0094 0.0003 (  2288 PWs)   bands (ev):

   -15.8656 -15.5320 -10.5376  -7.9847  -5.7200  -5.3112  -4.6845  -2.4671
    -0.9179  -0.8401   0.6023   1.3771   1.9052   2.3750   3.3402   6.0779
     6.6694   6.8663   8.4893   8.9927

          k =-0.5015 0.0089 0.6795 (  2292 PWs)   bands (ev):

   -15.2998 -15.0003  -9.9693  -7.4458  -5.0737  -4.9008  -4.0861  -2.0081
    -1.9003  -1.3737  -0.4570   0.4634   1.4374   2.6375   3.0227   4.1849
     5.7132   5.9666   6.1444   7.5486

          k =-0.5006 0.0105-1.3582 (  2286 PWs)   bands (ev):

   -14.6026 -14.3562  -9.2431  -6.7822  -4.4280  -4.3014  -4.2273  -3.3200
    -3.2204  -1.4623  -0.0232   0.8462   0.8658   2.3414   3.2604   3.6475
     3.8450   4.0076   4.8584   7.4140

          k =-0.5001-0.7474 0.0005 (  2294 PWs)   bands (ev):

   -15.8309 -15.5043 -10.6285  -7.7912  -6.3728  -5.7452  -4.6344  -2.4679
    -0.5488   0.5604   0.6243   1.4016   2.1468   2.4228   3.9312   5.9438
     6.1806   6.7639   8.6250   8.9147

          k =-0.5004-0.7479 0.6797 (  2280 PWs)   bands (ev):

   -15.2702 -14.9770 -10.0443  -7.2845  -5.6615  -5.2661  -4.0412  -2.0315
    -1.7885  -1.0165  -0.1895   1.0626   1.7250   2.6458   3.3812   4.3822
     5.3959   6.0801   6.2610   7.1585

          k =-0.4994-0.7463-1.3580 (  2286 PWs)   bands (ev):

   -14.5805 -14.3395  -9.2976  -6.6716  -4.7070  -4.6825  -4.2114  -3.1999
    -3.1945  -1.4458   0.1869   0.5027   2.0786   2.1859   3.1560   3.6698
     3.8017   3.9305   5.5314   6.6837

     the Fermi energy is     4.3767 ev

!    total energy              =     -89.84802447 Ry
     Harris-Foulkes estimate   =     -89.84802456 Ry
     estimated scf accuracy    <       0.00000012 Ry

     The total energy is the sum of the following terms:

     one-electron contribution =     -29.86697385 Ry
     hartree contribution      =      28.34531704 Ry
     xc contribution           =     -26.85100732 Ry
     ewald contribution        =     -61.47568548 Ry
     smearing contrib. (-TS)   =       0.00032514 Ry

     convergence has been achieved in  10 iterations

     Forces acting on atoms (cartesian axes, Ry/au):

     atom    1 type  1   force =    -0.00706621   -0.02130275   -0.00007868
     atom    2 type  1   force =     0.00092093    0.00521395    0.00033824
     atom    3 type  1   force =     0.00922788   -0.03523489    0.00010727
     atom    4 type  1   force =     0.01216227    0.00774931   -0.00011476
     atom    5 type  1   force =    -0.00053516   -0.00526389   -0.00036719
     atom    6 type  1   force =     0.00682129    0.02114983    0.00000077
     atom    7 type  1   force =    -0.01195168   -0.00769252    0.00008171
     atom    8 type  1   force =    -0.00957932    0.03538095    0.00003264

     Total force =     0.064297     Total SCF correction =     0.000758


     Computing stress (Cartesian axis) and pressure

          total   stress  (Ry/bohr**3)                   (kbar)     P=      -11.58
  -0.00016326   0.00023143   0.00000188          -24.02       34.04        0.28
   0.00023143  -0.00030406   0.00000110           34.04      -44.73        0.16
   0.00000188   0.00000110   0.00023110            0.28        0.16       34.00


     number of scf cycles    =   4
     number of bfgs steps    =   3

     enthalpy old            =     -89.8423882033 Ry
     enthalpy new            =     -89.8479858471 Ry

     CASE: enthalpy_new < enthalpy_old

     new trust radius        =       0.0395938808 bohr
     new conv_thr            =       0.0000003538 Ry

     new unit-cell volume =    568.85075 a.u.^3 (    84.29498 Ang^3 )
     density =      1.89112 g/cm^3

CELL_PARAMETERS (bohr)
  13.182886984   0.084686869   0.007150631
   0.206887288   8.756660442   0.007328079
   0.003127524   0.001668898   4.928508265

ATOMIC_POSITIONS (crystal)
C             0.4344906533        0.6648187740        0.5083730738
C             0.0034238533        0.0294985732        0.5050028572
C             0.9075441275        0.3084867051        0.5054360675
C             0.5309164022        0.3905229023        0.5081721877
C             0.2365938818        0.6248670780        0.5097517529
C             0.8055051492        0.9898348770        0.5063989655
C             0.7092475062        0.2642768194        0.5065292300
C             0.3326354263        0.3459692709        0.5091668653



     Writing output data file ./pp.save/
     NEW-OLD atomic charge density approx. for the potential
     extrapolated charge   32.03797, renormalised to   32.00000

     total cpu time spent up to now is       37.0 secs

     Self-consistent Calculation

     iteration #  1     ecut=    40.00 Ry     beta= 0.50
     Davidson diagonalization with overlap
     ethr =  1.00E-06,  avg # of iterations =  5.5

     total cpu time spent up to now is       39.4 secs

     total energy              =     -89.85150860 Ry
     Harris-Foulkes estimate   =     -89.82496080 Ry
     estimated scf accuracy    <       0.00077524 Ry

     iteration #  2     ecut=    40.00 Ry     beta= 0.50
     Davidson diagonalization with overlap
     ethr =  2.42E-06,  avg # of iterations =  3.1

     total cpu time spent up to now is       40.8 secs

     total energy              =     -89.85142640 Ry
     Harris-Foulkes estimate   =     -89.85192181 Ry
     estimated scf accuracy    <       0.00161525 Ry

     iteration #  3     ecut=    40.00 Ry     beta= 0.50
     Davidson diagonalization with overlap
     ethr =  2.42E-06,  avg # of iterations =  2.8

     total cpu time spent up to now is       42.0 secs

     total energy              =     -89.85164440 Ry
     Harris-Foulkes estimate   =     -89.85169313 Ry
     estimated scf accuracy    <       0.00012932 Ry

     iteration #  4     ecut=    40.00 Ry     beta= 0.50
     Davidson diagonalization with overlap
     ethr =  4.04E-07,  avg # of iterations =  2.8

     total cpu time spent up to now is       43.3 secs

     total energy              =     -89.85165922 Ry
     Harris-Foulkes estimate   =     -89.85168133 Ry
     estimated scf accuracy    <       0.00006702 Ry

     iteration #  5     ecut=    40.00 Ry     beta= 0.50
     Davidson diagonalization with overlap
     ethr =  2.09E-07,  avg # of iterations =  2.5

     total cpu time spent up to now is       44.5 secs

     total energy              =     -89.85166919 Ry
     Harris-Foulkes estimate   =     -89.85167037 Ry
     estimated scf accuracy    <       0.00000442 Ry

     iteration #  6     ecut=    40.00 Ry     beta= 0.50
     Davidson diagonalization with overlap
     ethr =  1.38E-08,  avg # of iterations =  2.8

     total cpu time spent up to now is       45.8 secs

     total energy              =     -89.85167000 Ry
     Harris-Foulkes estimate   =     -89.85167002 Ry
     estimated scf accuracy    <       0.00000039 Ry

     iteration #  7     ecut=    40.00 Ry     beta= 0.50
     Davidson diagonalization with overlap
     ethr =  1.23E-09,  avg # of iterations =  3.0

     total cpu time spent up to now is       47.4 secs

     End of self-consistent calculation

          k = 0.0000 0.0000 0.0000 (  2301 PWs)   bands (ev):

   -16.1107 -15.6639 -10.8392  -7.6906  -5.7773  -5.4414  -5.2770  -2.0908
    -1.1524  -0.7475   1.0203   1.2308   1.4876   2.1944   3.0471   5.6217
     6.1283   7.5784   8.5668   8.8194

          k =-0.0004-0.0006 0.6736 (  2293 PWs)   bands (ev):

   -15.5725 -15.1737 -10.2830  -7.2303  -5.4039  -4.8557  -4.6106  -2.2015
    -1.6820  -1.0016  -0.7774   0.0803   2.1267   2.2049   2.8762   3.6322
     5.9903   6.0178   6.2127   7.2570

          k = 0.0007 0.0011-1.3473 (  2304 PWs)   bands (ev):

   -14.9158 -14.5892  -9.5812  -6.6841  -4.9041  -4.4922  -4.1132  -3.7126
    -3.1417  -1.1248  -0.3698   0.3190   0.8546   2.7711   3.1847   3.8086
     3.8390   4.4103   4.6596   7.0868

          k = 0.0049-0.7584 0.0003 (  2300 PWs)   bands (ev):

   -16.0522 -15.6744 -10.7940  -8.0274  -6.0726  -5.4872  -5.4326  -1.8253
    -0.9459   0.0383   1.0773   1.3670   1.4214   2.1603   4.4471   5.5310
     5.7442   7.4512   8.2830   8.7976

          k = 0.0045-0.7590 0.6739 (  2283 PWs)   bands (ev):

   -15.5223 -15.1824 -10.2456  -7.5178  -5.4253  -5.1144  -4.8016  -2.0048
    -1.4739  -1.0962  -0.5907   0.8235   1.9294   2.2875   3.1540   5.0056
     5.1936   5.8160   5.9213   6.8547

          k = 0.0056-0.7573-1.3470 (  2274 PWs)   bands (ev):

   -14.8780 -14.5952  -9.5543  -6.9024  -4.7074  -4.5761  -4.3363  -3.8684
    -3.2011  -0.9657  -0.2105   0.5852   1.6194   2.8201   2.9873   3.0207
     3.6705   3.8185   5.8656   6.8049

          k =-0.5038 0.0119 0.0003 (  2288 PWs)   bands (ev):

   -16.0584 -15.7321 -10.7130  -8.0862  -5.7340  -5.3869  -4.7227  -2.5395
    -0.9529  -0.9366   0.5882   1.0702   1.9184   2.0882   3.4494   5.8229
     6.7256   6.9980   8.3883   8.8799

          k =-0.5041 0.0113 0.6740 (  2292 PWs)   bands (ev):

   -15.5259 -15.2328 -10.1764  -7.5786  -5.1173  -5.0319  -4.1226  -2.1059
    -2.0727  -1.5114  -0.5244   0.3278   1.3988   2.6233   2.9431   4.2205
     5.7021   5.9532   6.1671   7.5623

          k =-0.5030 0.0130-1.3470 (  2286 PWs)   bands (ev):

   -14.8781 -14.6352  -9.4987  -6.9618  -4.6148  -4.3823  -4.3203  -3.3846
    -3.2885  -1.5935  -0.1176   0.7093   0.8100   2.2747   3.3121   3.5900
     3.9138   4.0924   4.9221   7.5392

          k =-0.4989-0.7465 0.0006 (  2294 PWs)   bands (ev):

   -16.0275 -15.7039 -10.7992  -7.8838  -6.3782  -5.8348  -4.6773  -2.5533
    -0.6093   0.5083   0.5985   1.0920   2.1356   2.1409   4.0750   5.6819
     6.2141   6.8606   8.5567   8.7881

          k =-0.4993-0.7471 0.6742 (  2280 PWs)   bands (ev):

   -15.4996 -15.2091 -10.2474  -7.4092  -5.6970  -5.3989  -4.0947  -2.1400
    -1.9731  -1.1520  -0.2668   0.9853   1.6603   2.5981   3.2502   4.4917
     5.3945   6.0862   6.2715   7.1679

          k =-0.4982-0.7454-1.3467 (  2286 PWs)   bands (ev):

   -14.8584 -14.6180  -9.5507  -6.8427  -4.8706  -4.7950  -4.2982  -3.2822
    -3.2562  -1.5872   0.0875   0.4514   1.9487   2.1127   3.2163   3.6211
     3.8953   4.0016   5.6080   6.7560

     the Fermi energy is     4.4580 ev

!    total energy              =     -89.85167001 Ry
     Harris-Foulkes estimate   =     -89.85167014 Ry
     estimated scf accuracy    <       0.00000016 Ry

     The total energy is the sum of the following terms:

     one-electron contribution =     -31.14069005 Ry
     hartree contribution      =      28.90988469 Ry
     xc contribution           =     -26.93202106 Ry
     ewald contribution        =     -60.68940077 Ry
     smearing contrib. (-TS)   =       0.00055718 Ry

     convergence has been achieved in   7 iterations

     Forces acting on atoms (cartesian axes, Ry/au):

     atom    1 type  1   force =     0.00515519   -0.00513246   -0.00014374
     atom    2 type  1   force =     0.02511195   -0.00762307    0.00023641
     atom    3 type  1   force =     0.01117770   -0.01495508    0.00007299
     atom    4 type  1   force =    -0.00718266    0.01314485   -0.00005064
     atom    5 type  1   force =    -0.02501060    0.00762457   -0.00025196
     atom    6 type  1   force =    -0.00526510    0.00503239    0.00009081
     atom    7 type  1   force =     0.00704418   -0.01321981    0.00002618
     atom    8 type  1   force =    -0.01103066    0.01512862    0.00001995

     Total force =     0.051249     Total SCF correction =     0.000923


     Computing stress (Cartesian axis) and pressure

          total   stress  (Ry/bohr**3)                   (kbar)     P=       17.62
   0.00025746   0.00009033   0.00000058           37.87       13.29        0.09
   0.00009033  -0.00002016   0.00000108           13.29       -2.97        0.16
   0.00000058   0.00000108   0.00012204            0.09        0.16       17.95


     number of scf cycles    =   5
     number of bfgs steps    =   4

     enthalpy old            =     -89.8479858471 Ry
     enthalpy new            =     -89.8516313402 Ry

     CASE: enthalpy_new < enthalpy_old

     new trust radius        =       0.0739967042 bohr
     new conv_thr            =       0.0000002511 Ry

     new unit-cell volume =    579.59697 a.u.^3 (    85.88741 Ang^3 )
     density =      1.85605 g/cm^3

CELL_PARAMETERS (bohr)
  13.226529976   0.201567112   0.008623749
   0.280256954   8.759752250   0.008350225
   0.003655517   0.002191714   5.004959184

ATOMIC_POSITIONS (crystal)
C             0.4334619921        0.6639777623        0.5083292459
C             0.0065153240        0.0268512606        0.5052129500
C             0.9084165187        0.3032949994        0.5055215299
C             0.5312254303        0.3921845761        0.5081211972
C             0.2335500298        0.6275496018        0.5095256990
C             0.8065151580        0.9906383177        0.5063958112
C             0.7089439268        0.2626568288        0.5065573911
C             0.3317286201        0.3511216533        0.5091671758



     Writing output data file ./pp.save/
     NEW-OLD atomic charge density approx. for the potential
     extrapolated charge   32.59330, renormalised to   32.00000

     total cpu time spent up to now is       47.5 secs

     Self-consistent Calculation

     iteration #  1     ecut=    40.00 Ry     beta= 0.50
     Davidson diagonalization with overlap
     ethr =  1.00E-06,  avg # of iterations =  8.2

     total cpu time spent up to now is       51.4 secs

     total energy              =     -89.83287694 Ry
     Harris-Foulkes estimate   =     -89.42026701 Ry
     estimated scf accuracy    <       0.01945850 Ry

     iteration #  2     ecut=    40.00 Ry     beta= 0.50
     Davidson diagonalization with overlap
     ethr =  6.08E-05,  avg # of iterations =  3.9

     total cpu time spent up to now is       53.6 secs

     total energy              =     -89.84879611 Ry
     Harris-Foulkes estimate   =     -89.87233326 Ry
     estimated scf accuracy    <       0.09067185 Ry

     iteration #  3     ecut=    40.00 Ry     beta= 0.50
     Davidson diagonalization with overlap
     ethr =  6.08E-05,  avg # of iterations =  3.0

     total cpu time spent up to now is       55.4 secs

     total energy              =     -89.85593330 Ry
     Harris-Foulkes estimate   =     -89.85756144 Ry
     estimated scf accuracy    <       0.00664573 Ry

     iteration #  4     ecut=    40.00 Ry     beta= 0.50
     Davidson diagonalization with overlap
     ethr =  2.08E-05,  avg # of iterations =  1.0

     total cpu time spent up to now is       56.3 secs

     total energy              =     -89.85553157 Ry
     Harris-Foulkes estimate   =     -89.85632648 Ry
     estimated scf accuracy    <       0.00397229 Ry

     iteration #  5     ecut=    40.00 Ry     beta= 0.50
     Davidson diagonalization with overlap
     ethr =  1.24E-05,  avg # of iterations =  1.1

     total cpu time spent up to now is       57.3 secs

     total energy              =     -89.85483543 Ry
     Harris-Foulkes estimate   =     -89.85567263 Ry
     estimated scf accuracy    <       0.00176429 Ry

     iteration #  6     ecut=    40.00 Ry     beta= 0.50
     Davidson diagonalization with overlap
     ethr =  5.51E-06,  avg # of iterations =  2.8

     total cpu time spent up to now is       59.0 secs

     total energy              =     -89.85526852 Ry
     Harris-Foulkes estimate   =     -89.85530618 Ry
     estimated scf accuracy    <       0.00010576 Ry

     iteration #  7     ecut=    40.00 Ry     beta= 0.50
     Davidson diagonalization with overlap
     ethr =  3.30E-07,  avg # of iterations =  2.2

     total cpu time spent up to now is       60.4 secs

     total energy              =     -89.85528411 Ry
     Harris-Foulkes estimate   =     -89.85528840 Ry
     estimated scf accuracy    <       0.00000983 Ry

     iteration #  8     ecut=    40.00 Ry     beta= 0.50
     Davidson diagonalization with overlap
     ethr =  3.07E-08,  avg # of iterations =  2.8

     total cpu time spent up to now is       62.3 secs

     total energy              =     -89.85528486 Ry
     Harris-Foulkes estimate   =     -89.85528864 Ry
     estimated scf accuracy    <       0.00000825 Ry

     iteration #  9     ecut=    40.00 Ry     beta= 0.50
     Davidson diagonalization with overlap
     ethr =  2.58E-08,  avg # of iterations =  2.2

     total cpu time spent up to now is       63.8 secs

     total energy              =     -89.85528659 Ry
     Harris-Foulkes estimate   =     -89.85528753 Ry
     estimated scf accuracy    <       0.00000394 Ry

     iteration # 10     ecut=    40.00 Ry     beta= 0.50
     Davidson diagonalization with overlap
     ethr =  1.23E-08,  avg # of iterations =  1.2

     total cpu time spent up to now is       65.0 secs

     total energy              =     -89.85528690 Ry
     Harris-Foulkes estimate   =     -89.85528703 Ry
     estimated scf accuracy    <       0.00000032 Ry

     iteration # 11     ecut=    40.00 Ry     beta= 0.50
     Davidson diagonalization with overlap
     ethr =  1.00E-09,  avg # of iterations =  2.7

     total cpu time spent up to now is       66.7 secs

     End of self-consistent calculation

          k = 0.0000 0.0000 0.0000 (  2301 PWs)   bands (ev):

   -16.2550 -15.8165 -11.0075  -7.8663  -6.0372  -5.5410  -5.2814  -2.1741
    -1.2459  -0.9312   0.6158   1.0654   1.2131   1.8000   3.0073   5.2048
     6.0368   7.5350   8.3223   8.5257

          k =-0.0004-0.0006 0.6633 (  2293 PWs)   bands (ev):

   -15.7639 -15.3709 -10.4959  -7.4501  -5.6852  -4.9978  -4.6690  -2.4002
    -1.7980  -1.1857  -0.9010  -0.1832   1.8523   1.9871   2.5960   3.5559
     5.8327   5.9029   6.0758   7.0358

          k = 0.0008 0.0012-1.3267 (  2304 PWs)   bands (ev):

   -15.1747 -14.8476  -9.8622  -6.9640  -5.2242  -4.5490  -4.3207  -3.8591
    -3.1936  -1.2928  -0.5291   0.2056   0.5291   2.5124   2.8050   3.8266
     3.9341   4.2234   4.5083   6.8883

          k = 0.0116-0.7584 0.0003 (  2300 PWs)   bands (ev):

   -16.1983 -15.8295 -10.9475  -8.2062  -6.1681  -5.7294  -5.4460  -1.9707
    -1.0887  -0.2911   0.6748   1.3099   1.3290   1.7580   4.3597   5.3573
     5.4287   7.4334   7.9708   8.4830

          k = 0.0111-0.7590 0.6637 (  2283 PWs)   bands (ev):

   -15.7151 -15.3818 -10.4455  -7.7421  -5.5624  -5.3847  -4.8630  -2.2096
    -1.6502  -1.2821  -0.7571   0.4490   1.7947   2.1562   2.9387   4.8832
     5.1267   5.4984   5.7793   6.6502

          k = 0.0124-0.7571-1.3264 (  2274 PWs)   bands (ev):

   -15.1373 -14.8556  -9.8243  -7.1904  -5.0018  -4.7814  -4.3919  -4.0314
    -3.2650  -1.1699  -0.4055   0.5232   1.1431   2.6324   2.8406   2.9977
     3.6351   3.6552   5.6690   6.6325

          k =-0.5023 0.0161 0.0004 (  2288 PWs)   bands (ev):

   -16.2030 -15.8842 -10.8746  -8.3068  -5.7832  -5.5051  -4.8732  -2.6197
    -1.2124  -1.0319   0.4723   0.6681   1.6668   1.6862   3.4342   5.4394
     6.6214   6.9185   7.9786   8.5489

          k =-0.5027 0.0155 0.6637 (  2292 PWs)   bands (ev):

   -15.7176 -15.4297 -10.3829  -7.8387  -5.2189  -5.2142  -4.2824  -2.2687
    -2.2211  -1.7094  -0.6475  -0.0194   1.2470   2.3472   2.7683   4.1256
     5.4085   5.8321   6.0436   7.3900

          k =-0.5014 0.0173-1.3263 (  2286 PWs)   bands (ev):

   -15.1368 -14.8941  -9.7732  -7.2776  -4.8702  -4.4947  -4.4361  -3.5013
    -3.4466  -1.7539  -0.2778   0.3159   0.7463   2.0681   3.1291   3.2166
     3.9368   4.0935   4.7973   7.4484

          k =-0.4907-0.7423 0.0007 (  2294 PWs)   bands (ev):

   -16.1778 -15.8536 -10.9593  -8.0732  -6.4050  -5.9745  -4.8853  -2.6861
    -0.7632   0.2179   0.5636   0.6847   1.7484   2.0041   4.0054   5.2750
     6.1256   6.7793   8.2497   8.4153

          k =-0.4911-0.7429 0.6640 (  2280 PWs)   bands (ev):

   -15.6961 -15.4038 -10.4529  -7.6399  -5.7746  -5.5945  -4.3179  -2.3011
    -2.1855  -1.3120  -0.4341   0.6506   1.5422   2.4238   2.9884   4.3741
     5.2943   5.9280   6.0498   7.0268

          k =-0.4899-0.7411-1.3260 (  2286 PWs)   bands (ev):

   -15.1206 -14.8750  -9.8253  -7.1307  -5.1344  -4.9554  -4.3626  -3.5516
    -3.3019  -1.7876  -0.0979   0.3595   1.4817   1.9738   3.1646   3.3951
     3.8853   3.9658   5.4242   6.5624

     the Fermi energy is     4.3300 ev

!    total energy              =     -89.85528696 Ry
     Harris-Foulkes estimate   =     -89.85528699 Ry
     estimated scf accuracy    <       0.00000003 Ry

     The total energy is the sum of the following terms:

     one-electron contribution =     -32.41221396 Ry
     hartree contribution      =      29.30798114 Ry
     xc contribution           =     -26.90475428 Ry
     ewald contribution        =     -59.84735004 Ry
     smearing contrib. (-TS)   =       0.00105018 Ry

     convergence has been achieved in  11 iterations

     Forces acting on atoms (cartesian axes, Ry/au):

     atom    1 type  1   force =    -0.01836634    0.01343007   -0.00019303
     atom    2 type  1   force =     0.00273256   -0.01634429    0.00015593
     atom    3 type  1   force =    -0.00277927   -0.00077178    0.00004859
     atom    4 type  1   force =    -0.02638660    0.00613915   -0.00002509
     atom    5 type  1   force =    -0.00311455    0.01639032   -0.00015417
     atom    6 type  1   force =     0.01854534   -0.01339217    0.00018270
     atom    7 type  1   force =     0.02615891   -0.00646698    0.00001609
     atom    8 type  1   force =     0.00320995    0.00101568   -0.00003102

     Total force =     0.055441     Total SCF correction =     0.000396


     Computing stress (Cartesian axis) and pressure

          total   stress  (Ry/bohr**3)                   (kbar)     P=        5.33
  -0.00003375   0.00000447   0.00000008           -4.96        0.66        0.01
   0.00000447   0.00019595   0.00000076            0.66       28.83        0.11
   0.00000008   0.00000076  -0.00005351            0.01        0.11       -7.87


     number of scf cycles    =   6
     number of bfgs steps    =   5

     enthalpy old            =     -89.8516313402 Ry
     enthalpy new            =     -89.8552475608 Ry

     CASE: enthalpy_new < enthalpy_old

     new trust radius        =       0.0649959198 bohr
     new conv_thr            =       0.0000002639 Ry

     new unit-cell volume =    590.17319 a.u.^3 (    87.45464 Ang^3 )
     density =      1.82279 g/cm^3

CELL_PARAMETERS (bohr)
  13.209019005   0.315472050   0.010134715
   0.357577270   8.816716121   0.009457501
   0.004200139   0.002755783   5.072516172

ATOMIC_POSITIONS (crystal)
C             0.4308260724        0.6652606619        0.5082511310
C             0.0087050187        0.0226492447        0.5054428975
C             0.9090438531        0.2987973470        0.5056106952
C             0.5302320872        0.3934841632        0.5080638364
C             0.2313786557        0.6317934806        0.5092807955
C             0.8091492500        0.9893384408        0.5064297116
C             0.7099249286        0.2613595959        0.5065921214
C             0.3310971343        0.3555920659        0.5091598115



     Writing output data file ./pp.save/
     NEW-OLD atomic charge density approx. for the potential
     extrapolated charge   32.57345, renormalised to   32.00000

     total cpu time spent up to now is       66.8 secs

     Self-consistent Calculation

     iteration #  1     ecut=    40.00 Ry     beta= 0.50
     Davidson diagonalization with overlap
     ethr =  1.00E-06,  avg # of iterations =  7.9

     total cpu time spent up to now is       71.6 secs

     total energy              =     -89.83525714 Ry
     Harris-Foulkes estimate   =     -89.42011415 Ry
     estimated scf accuracy    <       0.02148442 Ry

     iteration #  2     ecut=    40.00 Ry     beta= 0.50
     Davidson diagonalization with overlap
     ethr =  6.71E-05,  avg # of iterations =  3.9

     total cpu time spent up to now is       74.2 secs

     total energy              =     -89.84970824 Ry
     Harris-Foulkes estimate   =     -89.87768166 Ry
     estimated scf accuracy    <       0.10877943 Ry

     iteration #  3     ecut=    40.00 Ry     beta= 0.50
     Davidson diagonalization with overlap
     ethr =  6.71E-05,  avg # of iterations =  3.3

     total cpu time spent up to now is       76.5 secs

     total energy              =     -89.85937616 Ry
     Harris-Foulkes estimate   =     -89.86079708 Ry
     estimated scf accuracy    <       0.00641154 Ry

     iteration #  4     ecut=    40.00 Ry     beta= 0.50
     Davidson diagonalization with overlap
     ethr =  2.00E-05,  avg # of iterations =  1.0

     total cpu time spent up to now is       77.7 secs

     total energy              =     -89.85918182 Ry
     Harris-Foulkes estimate   =     -89.85968975 Ry
     estimated scf accuracy    <       0.00374956 Ry

     iteration #  5     ecut=    40.00 Ry     beta= 0.50
     Davidson diagonalization with overlap
     ethr =  1.17E-05,  avg # of iterations =  1.0

     total cpu time spent up to now is       78.9 secs

     total energy              =     -89.85809311 Ry
     Harris-Foulkes estimate   =     -89.85925342 Ry
     estimated scf accuracy    <       0.00237271 Ry

     iteration #  6     ecut=    40.00 Ry     beta= 0.50
     Davidson diagonalization with overlap
     ethr =  7.41E-06,  avg # of iterations =  2.4

     total cpu time spent up to now is       80.9 secs

     total energy              =     -89.85863697 Ry
     Harris-Foulkes estimate   =     -89.85866505 Ry
     estimated scf accuracy    <       0.00006487 Ry

     iteration #  7     ecut=    40.00 Ry     beta= 0.50
     Davidson diagonalization with overlap
     ethr =  2.03E-07,  avg # of iterations =  2.8

     total cpu time spent up to now is       83.1 secs

     total energy              =     -89.85865844 Ry
     Harris-Foulkes estimate   =     -89.85866035 Ry
     estimated scf accuracy    <       0.00000626 Ry

     iteration #  8     ecut=    40.00 Ry     beta= 0.50
     Davidson diagonalization with overlap
     ethr =  1.96E-08,  avg # of iterations =  2.4

     total cpu time spent up to now is       85.1 secs

     total energy              =     -89.85865857 Ry
     Harris-Foulkes estimate   =     -89.85866011 Ry
     estimated scf accuracy    <       0.00000280 Ry

     iteration #  9     ecut=    40.00 Ry     beta= 0.50
     Davidson diagonalization with overlap
     ethr =  8.74E-09,  avg # of iterations =  2.6

     total cpu time spent up to now is       87.2 secs

     total energy              =     -89.85865936 Ry
     Harris-Foulkes estimate   =     -89.85865981 Ry
     estimated scf accuracy    <       0.00000170 Ry

     iteration # 10     ecut=    40.00 Ry     beta= 0.50
     Davidson diagonalization with overlap
     ethr =  5.31E-09,  avg # of iterations =  1.2

     total cpu time spent up to now is       88.6 secs

     total energy              =     -89.85865934 Ry
     Harris-Foulkes estimate   =     -89.85865948 Ry
     estimated scf accuracy    <       0.00000038 Ry

     iteration # 11     ecut=    40.00 Ry     beta= 0.50
     Davidson diagonalization with overlap
     ethr =  1.19E-09,  avg # of iterations =  2.7

     total cpu time spent up to now is       90.7 secs

     End of self-consistent calculation

          k = 0.0000 0.0000 0.0000 (  2301 PWs)   bands (ev):

   -16.3924 -15.9693 -11.1043  -8.0108  -6.1799  -5.6685  -5.4043  -2.3324
    -1.4180  -1.0651   0.2806   0.9327   0.9982   1.4425   3.0240   4.8669
     5.9751   7.3775   7.9848   8.2177

          k =-0.0005-0.0007 0.6545 (  2293 PWs)   bands (ev):

   -15.9405 -15.5601 -10.6269  -7.6283  -5.8525  -5.1611  -4.8286  -2.5659
    -1.9807  -1.3666  -1.0857  -0.3901   1.6224   1.8048   2.3794   3.5374
     5.7114   5.7246   5.8790   6.8779

          k = 0.0010 0.0014-1.3090 (  2304 PWs)   bands (ev):

   -15.4057 -15.0856 -10.0433  -7.1870  -5.4245  -4.6008  -4.5371  -4.0827
    -3.2627  -1.5229  -0.7405   0.1256   0.2560   2.2999   2.4946   3.7635
     3.8594   4.1599   4.4360   6.7615

          k = 0.0180-0.7538 0.0004 (  2300 PWs)   bands (ev):

   -16.3372 -15.9859 -11.0312  -8.3871  -6.2443  -5.8164  -5.5784  -2.1617
    -1.2491  -0.5766   0.3426   1.1897   1.2363   1.3895   4.3658   5.0523
     5.2774   7.2445   7.5730   8.1877

          k = 0.0175-0.7545 0.6549 (  2283 PWs)   bands (ev):

   -15.8928 -15.5743 -10.5649  -7.9542  -5.6792  -5.5050  -5.0275  -2.3790
    -1.8705  -1.4704  -0.9433   0.1277   1.6521   2.0197   2.7531   4.8613
     4.9155   5.2917   5.5920   6.4566

          k = 0.0190-0.7525-1.3086 (  2274 PWs)   bands (ev):

   -15.3686 -15.0964  -9.9952  -7.4447  -5.1613  -4.9618  -4.4425  -4.2581
    -3.3515  -1.4168  -0.6211   0.4924   0.7295   2.4299   2.6732   2.8552
     3.5809   3.5833   5.5818   6.4345

          k =-0.5032 0.0204 0.0004 (  2288 PWs)   bands (ev):

   -16.3399 -16.0371 -10.9667  -8.4678  -5.9119  -5.6291  -4.9886  -2.7418
    -1.4350  -1.2075   0.3377   0.3809   1.3198   1.4379   3.4665   5.1278
     6.5110   6.8593   7.5964   8.2308

          k =-0.5037 0.0197 0.6549 (  2292 PWs)   bands (ev):

   -15.8936 -15.6191 -10.5091  -8.0327  -5.3792  -5.3658  -4.4395  -2.4307
    -2.3750  -1.8921  -0.8560  -0.3110   1.1240   2.0943   2.6266   4.0984
     5.1559   5.6538   5.8905   7.2153

          k =-0.5022 0.0218-1.3086 (  2286 PWs)   bands (ev):

   -15.3671 -15.1326  -9.9490  -7.5170  -5.0483  -4.7145  -4.4811  -3.7269
    -3.5273  -1.9440  -0.5146  -0.0192   0.6992   1.8962   2.8902   3.0051
     3.8404   4.0379   4.7460   7.4254

          k =-0.4852-0.7334 0.0008 (  2294 PWs)   bands (ev):

   -16.3220 -16.0030 -11.0617  -8.1916  -6.4931  -6.1454  -5.0013  -2.8099
    -1.0000  -0.0209   0.3464   0.4590   1.3942   1.8722   4.0276   4.9294
     5.9564   6.5919   7.9490   8.0819

          k =-0.4857-0.7341 0.6553 (  2280 PWs)   bands (ev):

   -15.8786 -15.5901 -10.5886  -7.7949  -5.9020  -5.7887  -4.4721  -2.4520
    -2.3651  -1.4792  -0.6841   0.3727   1.3804   2.2662   2.7493   4.3626
     5.1251   5.7525   5.8792   6.8215

          k =-0.4842-0.7321-1.3082 (  2286 PWs)   bands (ev):

   -15.3559 -15.1107 -10.0101  -7.3344  -5.3567  -5.1459  -4.4233  -3.7727
    -3.3644  -1.9820  -0.3639   0.2610   1.0958   1.7990   3.1189   3.1856
     3.8247   3.9073   5.3499   6.4599

     the Fermi energy is     4.3055 ev

!    total energy              =     -89.85865941 Ry
     Harris-Foulkes estimate   =     -89.85865944 Ry
     estimated scf accuracy    <       0.00000003 Ry

     The total energy is the sum of the following terms:

     one-electron contribution =     -33.84006766 Ry
     hartree contribution      =      29.80977642 Ry
     xc contribution           =     -26.88968532 Ry
     ewald contribution        =     -58.93959175 Ry
     smearing contrib. (-TS)   =       0.00090891 Ry

     convergence has been achieved in  11 iterations

     Forces acting on atoms (cartesian axes, Ry/au):

     atom    1 type  1   force =    -0.01092964    0.01464458   -0.00026371
     atom    2 type  1   force =     0.00843431   -0.01810372    0.00005800
     atom    3 type  1   force =     0.00198896    0.00463376   -0.00000064
     atom    4 type  1   force =    -0.01113952    0.00212429   -0.00006268
     atom    5 type  1   force =    -0.00893566    0.01801063   -0.00004783
     atom    6 type  1   force =     0.01116922   -0.01451159    0.00028967
     atom    7 type  1   force =     0.01108221   -0.00256646    0.00007160
     atom    8 type  1   force =    -0.00166987   -0.00423149   -0.00004442

     Total force =     0.042151     Total SCF correction =     0.000388


     Computing stress (Cartesian axis) and pressure

          total   stress  (Ry/bohr**3)                   (kbar)     P=        1.03
   0.00001011   0.00004369  -0.00000056            1.49        6.43       -0.08
   0.00004369   0.00017516   0.00000010            6.43       25.77        0.02
  -0.00000056   0.00000010  -0.00016428           -0.08        0.02      -24.17


     number of scf cycles    =   7
     number of bfgs steps    =   6

     enthalpy old            =     -89.8552475608 Ry
     enthalpy new            =     -89.8586192893 Ry

     CASE: enthalpy_new < enthalpy_old

     new trust radius        =       0.0970688500 bohr
     new conv_thr            =       0.0000001810 Ry

     new unit-cell volume =    604.74197 a.u.^3 (    89.61351 Ang^3 )
     density =      1.77888 g/cm^3

CELL_PARAMETERS (bohr)
  13.175257622   0.539616233   0.012342979
   0.509515416   8.919265601   0.011158265
   0.004989023   0.003610043   5.158220803

ATOMIC_POSITIONS (crystal)
C             0.4264476474        0.6681633117        0.5080568387
C             0.0129301277        0.0142492293        0.5058162936
C             0.9105319976        0.2919212307        0.5057484161
C             0.5287338258        0.3958916818        0.5079497660
C             0.2271472751        0.6402331420        0.5088859098
C             0.8135415649        0.9864327256        0.5065631247
C             0.7114116748        0.2589015138        0.5066741872
C             0.3296128865        0.3624821652        0.5091364639



     Writing output data file ./pp.save/
     NEW-OLD atomic charge density approx. for the potential
     extrapolated charge   32.77090, renormalised to   32.00000

     total cpu time spent up to now is       90.8 secs

     Self-consistent Calculation

     iteration #  1     ecut=    40.00 Ry     beta= 0.50
     Davidson diagonalization with overlap
     ethr =  1.00E-06,  avg # of iterations =  8.6

     total cpu time spent up to now is       97.4 secs

     total energy              =     -89.82531415 Ry
     Harris-Foulkes estimate   =     -89.23979209 Ry
     estimated scf accuracy    <       0.03447970 Ry

     iteration #  2     ecut=    40.00 Ry     beta= 0.50
     Davidson diagonalization with overlap
     ethr =  1.08E-04,  avg # of iterations =  4.0

     total cpu time spent up to now is      100.5 secs

     total energy              =     -89.84852509 Ry
     Harris-Foulkes estimate   =     -89.89471267 Ry
     estimated scf accuracy    <       0.19038959 Ry

     iteration #  3     ecut=    40.00 Ry     beta= 0.50
     Davidson diagonalization with overlap
     ethr =  1.08E-04,  avg # of iterations =  3.2

     total cpu time spent up to now is      103.1 secs

     total energy              =     -89.86491754 Ry
     Harris-Foulkes estimate   =     -89.86802867 Ry
     estimated scf accuracy    <       0.01182200 Ry

     iteration #  4     ecut=    40.00 Ry     beta= 0.50
     Davidson diagonalization with overlap
     ethr =  3.69E-05,  avg # of iterations =  1.2

     total cpu time spent up to now is      104.6 secs

     total energy              =     -89.86471230 Ry
     Harris-Foulkes estimate   =     -89.86576661 Ry
     estimated scf accuracy    <       0.00583920 Ry

     iteration #  5     ecut=    40.00 Ry     beta= 0.50
     Davidson diagonalization with overlap
     ethr =  1.82E-05,  avg # of iterations =  1.3

     total cpu time spent up to now is      106.2 secs

     total energy              =     -89.86354394 Ry
     Harris-Foulkes estimate   =     -89.86490680 Ry
     estimated scf accuracy    <       0.00318039 Ry

     iteration #  6     ecut=    40.00 Ry     beta= 0.50
     Davidson diagonalization with overlap
     ethr =  9.94E-06,  avg # of iterations =  2.2

     total cpu time spent up to now is      108.5 secs

     total energy              =     -89.86407487 Ry
     Harris-Foulkes estimate   =     -89.86409850 Ry
     estimated scf accuracy    <       0.00008843 Ry

     iteration #  7     ecut=    40.00 Ry     beta= 0.50
     Davidson diagonalization with overlap
     ethr =  2.76E-07,  avg # of iterations =  3.5

     total cpu time spent up to now is      111.4 secs

     total energy              =     -89.86410651 Ry
     Harris-Foulkes estimate   =     -89.86411160 Ry
     estimated scf accuracy    <       0.00002102 Ry

     iteration #  8     ecut=    40.00 Ry     beta= 0.50
     Davidson diagonalization with overlap
     ethr =  6.57E-08,  avg # of iterations =  1.8

     total cpu time spent up to now is      113.4 secs

     total energy              =     -89.86410683 Ry
     Harris-Foulkes estimate   =     -89.86410852 Ry
     estimated scf accuracy    <       0.00000745 Ry

     iteration #  9     ecut=    40.00 Ry     beta= 0.50
     Davidson diagonalization with overlap
     ethr =  2.33E-08,  avg # of iterations =  2.5

     total cpu time spent up to now is      115.7 secs

     total energy              =     -89.86410743 Ry
     Harris-Foulkes estimate   =     -89.86410769 Ry
     estimated scf accuracy    <       0.00000045 Ry

     iteration # 10     ecut=    40.00 Ry     beta= 0.50
     Davidson diagonalization with overlap
     ethr =  1.40E-09,  avg # of iterations =  3.1

     total cpu time spent up to now is      118.5 secs

     End of self-consistent calculation

          k = 0.0000 0.0000 0.0000 (  2301 PWs)   bands (ev):

   -16.4926 -16.0780 -11.1886  -8.1171  -6.3684  -5.8503  -5.5662  -2.5569
    -1.6949  -1.2262  -0.0728   0.6356   0.7693   1.0730   3.1408   4.4539
     5.9401   7.0916   7.6001   7.8233

          k =-0.0006-0.0008 0.6436 (  2293 PWs)   bands (ev):

   -16.0838 -15.7093 -10.7496  -7.7727  -6.0598  -5.3837  -5.0365  -2.7242
    -2.2297  -1.5358  -1.3553  -0.6844   1.2533   1.5818   2.0975   3.6096
     5.4816   5.5577   5.6678   6.7118

          k = 0.0011 0.0015-1.2873 (  2304 PWs)   bands (ev):

   -15.6073 -15.2875 -10.2213  -7.3806  -5.6568  -4.8184  -4.6259  -4.3653
    -3.2981  -1.8291  -1.0292  -0.1639   0.0097   2.0267   2.0475   3.6613
     3.7885   4.0593   4.4441   6.5331

          k = 0.0306-0.7462 0.0005 (  2300 PWs)   bands (ev):

   -16.4349 -16.1050 -11.0801  -8.6064  -6.3426  -5.8825  -5.7277  -2.4609
    -1.4570  -1.0650  -0.0004   0.9893   1.0315   1.1589   4.4766   4.7257
     5.0283   6.9058   7.0432   7.8130

          k = 0.0300-0.7470 0.6441 (  2283 PWs)   bands (ev):

   -16.0336 -15.7327 -10.6558  -8.2027  -5.8263  -5.5743  -5.2502  -2.5325
    -2.1976  -1.6776  -1.1790  -0.4192   1.5030   1.8694   2.5601   4.5734
     4.9411   5.0294   5.3324   6.1815

          k = 0.0317-0.7447-1.2868 (  2274 PWs)   bands (ev):

   -15.5674 -15.3061 -10.1458  -7.7313  -5.2730  -5.1831  -4.5540  -4.4573
    -3.4324  -1.7659  -0.8883   0.0336   0.4997   2.2011   2.4768   2.6192
     3.4589   3.5013   5.5816   6.1422

          k =-0.5052 0.0289 0.0005 (  2288 PWs)   bands (ev):

   -16.4354 -16.1514 -11.0277  -8.6570  -6.0891  -5.7099  -5.1567  -2.9135
    -1.8031  -1.4488  -0.0028   0.2751   0.9234   1.0546   3.6355   4.7898
     6.3311   6.7953   7.0837   7.8281

          k =-0.5057 0.0281 0.6441 (  2292 PWs)   bands (ev):

   -16.0328 -15.7733 -10.6103  -8.2540  -5.5981  -5.4705  -4.6597  -2.5881
    -2.5744  -2.1035  -1.1329  -0.7607   0.9825   1.6961   2.4903   4.1920
     4.7847   5.4100   5.6892   6.9655

          k =-0.5040 0.0304-1.2868 (  2286 PWs)   bands (ev):

   -15.5649 -15.3392 -10.1074  -7.7807  -5.1869  -4.9955  -4.4881  -4.0263
    -3.5989  -2.1876  -0.8200  -0.5751   0.6788   1.6987   2.3980   2.7912
     3.6921   3.9445   4.8124   7.1926

          k =-0.4746-0.7173 0.0010 (  2294 PWs)   bands (ev):

   -16.4314 -16.1069 -11.1544  -8.2614  -6.6103  -6.3788  -5.1568  -2.9725
    -1.3761  -0.3955  -0.0128   0.3701   1.0303   1.7070   4.1522   4.5036
     5.6519   6.2757   7.6024   7.6750

          k =-0.4752-0.7181 0.6446 (  2280 PWs)   bands (ev):

   -16.0300 -15.7350 -10.7187  -7.9060  -6.0660  -6.0390  -4.6749  -2.6438
    -2.5426  -1.6271  -1.0637  -0.0707   1.2228   2.0514   2.4488   4.4410
     4.8771   5.5082   5.7256   6.4991

          k =-0.4735-0.7158-1.2863 (  2286 PWs)   bands (ev):

   -15.5637 -15.3092 -10.1941  -7.4995  -5.6250  -5.3822  -4.4627  -4.0547
    -3.3888  -2.2258  -0.7468   0.1145   0.4717   1.6281   2.9230   3.0433
     3.7937   3.8089   5.3585   6.2851

     the Fermi energy is     4.3488 ev

!    total energy              =     -89.86410758 Ry
     Harris-Foulkes estimate   =     -89.86410764 Ry
[...]
     Harris-Foulkes estimate   =     -90.19654829 Ry
     estimated scf accuracy    <       0.00002264 Ry

     iteration #  5     ecut=    40.00 Ry     beta= 0.50
     Davidson diagonalization with overlap
     ethr =  7.07E-08,  avg # of iterations =  2.0

     total cpu time spent up to now is     2138.0 secs

     total energy              =     -90.19654505 Ry
     Harris-Foulkes estimate   =     -90.19654599 Ry
     estimated scf accuracy    <       0.00000310 Ry

     iteration #  6     ecut=    40.00 Ry     beta= 0.50
     Davidson diagonalization with overlap
     ethr =  9.68E-09,  avg # of iterations =  2.2

     total cpu time spent up to now is     2148.3 secs

     total energy              =     -90.19654564 Ry
     Harris-Foulkes estimate   =     -90.19654562 Ry
     estimated scf accuracy    <       0.00000016 Ry

     iteration #  7     ecut=    40.00 Ry     beta= 0.50
     Davidson diagonalization with overlap
     ethr =  5.13E-10,  avg # of iterations =  2.2

     total cpu time spent up to now is     2159.8 secs

     End of self-consistent calculation

          k = 0.0000 0.0000 0.0000 (  2301 PWs)   bands (ev):

   -16.6222 -15.9614 -12.0751  -8.7853  -7.5256  -6.8128  -5.9880  -4.1052
    -3.4407  -1.5475  -1.2927  -0.7819   0.2309   0.7766   1.9901   4.6954
     5.3033   6.2759   6.3339   7.8274

          k =-0.0002-0.0002 0.5922 (  2293 PWs)   bands (ev):

   -16.3710 -15.7503 -11.7942  -8.6145  -7.3432  -6.5238  -5.6546  -3.9087
    -3.3822  -3.3246  -1.5134  -1.1544  -0.2063   0.3698   1.3069   4.5149
     4.5449   5.3224   5.8431   6.5249

          k = 0.0003 0.0004-1.1843 (  2304 PWs)   bands (ev):

   -16.0935 -15.5217 -11.4780  -8.4164  -7.1478  -6.1962  -5.2657  -4.6944
    -3.6996  -3.3172  -2.7536  -1.0186  -0.9578   0.3245   1.6223   3.3368
     3.5262   5.3257   5.4664   5.5730

          k = 0.1064-0.7186-0.0000 (  2300 PWs)   bands (ev):

   -16.3225 -16.3210 -10.9625 -10.8507  -6.7824  -6.7464  -5.0870  -5.0382
    -2.4970  -2.4139  -0.9356  -0.9267   0.4070   0.5571   4.1838   4.3216
     4.9941   5.0043   6.2231   6.2554

          k = 0.1062-0.7188 0.5922 (  2283 PWs)   bands (ev):

   -16.0882 -16.0868 -10.7221 -10.6081  -6.4559  -6.4239  -4.9798  -4.9302
    -2.6584  -2.6530  -2.3378  -2.2528   0.8514   0.9980   2.6871   2.8011
     4.3243   4.3668   5.5888   5.6255

          k = 0.1067-0.7182-1.1843 (  2274 PWs)   bands (ev):

   -15.8317 -15.8305 -10.4525 -10.3359  -6.0797  -6.0532  -4.8588  -4.8056
    -3.9958  -3.9944  -2.1677  -2.0797   1.2857   1.3928   1.4367   1.4990
     3.1047   3.1693   5.7007   5.7517

          k =-0.5435 0.0649 0.0001 (  2288 PWs)   bands (ev):

   -16.3373 -16.3329 -10.9462 -10.8359  -6.5578  -6.5065  -5.0731  -5.0154
    -2.7506  -2.6939  -0.9579  -0.9412  -0.1827  -0.0405   4.2055   4.3490
     5.5533   5.5987   6.2899   6.3223

          k =-0.5437 0.0647 0.5922 (  2292 PWs)   bands (ev):

   -16.1013 -16.0972 -10.7080 -10.5953  -6.2534  -6.2049  -4.9667  -4.9079
    -2.7199  -2.6991  -2.5654  -2.5065   0.3495   0.4933   2.7199   2.8467
     4.6163   4.6582   5.9775   6.0028

          k =-0.5432 0.0652-1.1842 (  2286 PWs)   bands (ev):

   -15.8426 -15.8389 -10.4406 -10.3250  -5.9058  -5.8611  -4.8476  -4.7859
    -4.0568  -4.0401  -2.3667  -2.3046   0.8248   0.9732   1.4666   1.5843
     3.3831   3.4560   6.1259   6.1529

          k =-0.4371-0.6537 0.0001 (  2294 PWs)   bands (ev):

   -16.5877 -15.9746 -12.0884  -8.7789  -7.5538  -7.3452  -5.7050  -4.0240
    -3.4380  -1.5054  -1.1582  -0.1956   0.2000   1.3196   1.9860   3.5527
     6.0752   6.1616   6.4083   7.8206

          k =-0.4373-0.6539 0.5922 (  2280 PWs)   bands (ev):

   -16.3404 -15.7620 -11.8061  -8.6077  -7.3695  -7.0055  -5.3927  -3.8385
    -3.3770  -3.2168  -1.6129  -1.0390   0.3547   0.4183   1.7255   3.4980
     4.7007   4.8670   6.5050   6.6309

          k =-0.4368-0.6533-1.1842 (  2286 PWs)   bands (ev):

   -16.0676 -15.5315 -11.4882  -8.4103  -7.1719  -6.6122  -5.0318  -4.5822
    -3.6412  -3.3138  -2.8204  -0.9784  -0.9154   0.7413   2.0942   2.6775
     3.6751   4.3659   5.4386   5.7487

     the Fermi energy is     4.1107 ev

!    total energy              =     -90.19654565 Ry
     Harris-Foulkes estimate   =     -90.19654567 Ry
     estimated scf accuracy    <       0.00000004 Ry

     The total energy is the sum of the following terms:

     one-electron contribution =     -48.17974075 Ry
     hartree contribution      =      35.88811697 Ry
     xc contribution           =     -27.11797735 Ry
     ewald contribution        =     -50.78645533 Ry
     smearing contrib. (-TS)   =      -0.00048921 Ry

     convergence has been achieved in   7 iterations

     Forces acting on atoms (cartesian axes, Ry/au):

     atom    1 type  1   force =     0.00729829   -0.00832054    0.00021810
     atom    2 type  1   force =     0.01677617   -0.01426964    0.00047332
     atom    3 type  1   force =     0.01175891    0.01520010    0.00038429
     atom    4 type  1   force =    -0.00933171    0.00692657    0.00009136
     atom    5 type  1   force =    -0.01672300    0.01428432   -0.00055874
     atom    6 type  1   force =    -0.00727364    0.00836015   -0.00038326
     atom    7 type  1   force =     0.00939022   -0.00687283   -0.00018948
     atom    8 type  1   force =    -0.01189524   -0.01530813   -0.00003559

     Total force =     0.047229     Total SCF correction =     0.000364


     Computing stress (Cartesian axis) and pressure

          total   stress  (Ry/bohr**3)                   (kbar)     P=       -1.70
  -0.00001129   0.00006330   0.00000122           -1.66        9.31        0.18
   0.00006330   0.00009939   0.00000229            9.31       14.62        0.34
   0.00000122   0.00000229  -0.00012278            0.18        0.34      -18.06


     number of scf cycles    =  38
     number of bfgs steps    =  34

     enthalpy old            =     -90.1952727342 Ry
     enthalpy new            =     -90.1965018512 Ry

     CASE: enthalpy_new < enthalpy_old

     new trust radius        =       0.0386462557 bohr
     new conv_thr            =       0.0000001229 Ry

     new unit-cell volume =    642.18889 a.u.^3 (    95.16257 Ang^3 )
     density =      1.67515 g/cm^3

CELL_PARAMETERS (bohr)
  12.364261271   1.841962770   0.006246771
   1.107574023   9.437032124   0.005780663
   0.001485821   0.001815706   5.601699956

ATOMIC_POSITIONS (crystal)
C             0.4351550605        0.7142851852        0.5069640042
C             0.0238705310       -0.0785790291        0.5072688494
C             0.9316594239        0.2071634660        0.5064742493
C             0.5272165107        0.4232801515        0.5077170592
C             0.2161760896        0.7331053184        0.5076087864
C             0.8048935896        0.9402892704        0.5078837919
C             0.7129072847        0.2312800297        0.5072659460
C             0.3084785099        0.4474506079        0.5076483136



     Writing output data file ./pp.save/
     NEW-OLD atomic charge density approx. for the potential
     extrapolated charge   31.89368, renormalised to   32.00000

     total cpu time spent up to now is     2160.2 secs

     Self-consistent Calculation

     iteration #  1     ecut=    40.00 Ry     beta= 0.50
     Davidson diagonalization with overlap
     ethr =  1.00E-06,  avg # of iterations =  5.7

     total cpu time spent up to now is     2184.2 secs

     total energy              =     -90.19728958 Ry
     Harris-Foulkes estimate   =     -90.31805291 Ry
     estimated scf accuracy    <       0.00081405 Ry

     iteration #  2     ecut=    40.00 Ry     beta= 0.50
     Davidson diagonalization with overlap
     ethr =  2.54E-06,  avg # of iterations =  3.0

     total cpu time spent up to now is     2198.2 secs

     total energy              =     -90.19799248 Ry
     Harris-Foulkes estimate   =     -90.19829003 Ry
     estimated scf accuracy    <       0.00084812 Ry

     iteration #  3     ecut=    40.00 Ry     beta= 0.50
     Davidson diagonalization with overlap
     ethr =  2.54E-06,  avg # of iterations =  1.2

     total cpu time spent up to now is     2206.1 secs

     total energy              =     -90.19798728 Ry
     Harris-Foulkes estimate   =     -90.19805864 Ry
     estimated scf accuracy    <       0.00015055 Ry

     iteration #  4     ecut=    40.00 Ry     beta= 0.50
     Davidson diagonalization with overlap
     ethr =  4.70E-07,  avg # of iterations =  2.8

     total cpu time spent up to now is     2219.1 secs

     total energy              =     -90.19802034 Ry
     Harris-Foulkes estimate   =     -90.19802496 Ry
     estimated scf accuracy    <       0.00001309 Ry

     iteration #  5     ecut=    40.00 Ry     beta= 0.50
     Davidson diagonalization with overlap
     ethr =  4.09E-08,  avg # of iterations =  2.8

     total cpu time spent up to now is     2231.2 secs

     total energy              =     -90.19802192 Ry
     Harris-Foulkes estimate   =     -90.19802366 Ry
     estimated scf accuracy    <       0.00000433 Ry

     iteration #  6     ecut=    40.00 Ry     beta= 0.50
     Davidson diagonalization with overlap
     ethr =  1.35E-08,  avg # of iterations =  2.2

     total cpu time spent up to now is     2242.8 secs

     total energy              =     -90.19802280 Ry
     Harris-Foulkes estimate   =     -90.19802350 Ry
     estimated scf accuracy    <       0.00000252 Ry

     iteration #  7     ecut=    40.00 Ry     beta= 0.50
     Davidson diagonalization with overlap
     ethr =  7.88E-09,  avg # of iterations =  1.8

     total cpu time spent up to now is     2252.5 secs

     total energy              =     -90.19802302 Ry
     Harris-Foulkes estimate   =     -90.19802315 Ry
     estimated scf accuracy    <       0.00000026 Ry

     iteration #  8     ecut=    40.00 Ry     beta= 0.50
     Davidson diagonalization with overlap
     ethr =  7.98E-10,  avg # of iterations =  2.9

     total cpu time spent up to now is     2266.0 secs

     total energy              =     -90.19802313 Ry
     Harris-Foulkes estimate   =     -90.19802317 Ry
     estimated scf accuracy    <       0.00000021 Ry

     iteration #  9     ecut=    40.00 Ry     beta= 0.50
     Davidson diagonalization with overlap
     ethr =  6.64E-10,  avg # of iterations =  1.0

     total cpu time spent up to now is     2274.0 secs

     End of self-consistent calculation

          k = 0.0000 0.0000 0.0000 (  2301 PWs)   bands (ev):

   -16.5479 -15.8697 -12.0284  -8.7236  -7.4010  -6.8259  -6.0153  -4.0899
    -3.3102  -1.4855  -1.2673  -0.7922   0.3134   0.8437   2.0426   4.7303
     5.1913   6.2759   6.3405   7.9093

          k =-0.0002-0.0003 0.5927 (  2293 PWs)   bands (ev):

   -16.2936 -15.6563 -11.7457  -8.5530  -7.2165  -6.5356  -5.6801  -3.8920
    -3.2839  -3.2428  -1.4415  -1.1221  -0.2211   0.4153   1.3727   4.5191
     4.5254   5.3471   5.7443   6.6013

          k = 0.0005 0.0007-1.1854 (  2304 PWs)   bands (ev):

   -16.0123 -15.4249 -11.4275  -8.3552  -7.0187  -6.2066  -5.2890  -4.6524
    -3.6814  -3.1852  -2.6892  -0.9843  -0.9178   0.3089   1.6873   3.3186
     3.5230   5.3580   5.5378   5.6120

          k = 0.1067-0.7161 0.0002 (  2300 PWs)   bands (ev):

   -16.2433 -16.2388 -10.9178 -10.7727  -6.7880  -6.7632  -4.9760  -4.9109
    -2.4771  -2.3820  -0.8753  -0.8545   0.4213   0.5234   4.2364   4.4050
     4.9607   4.9970   6.2340   6.2558

          k = 0.1064-0.7165 0.5929 (  2283 PWs)   bands (ev):

   -16.0060 -16.0015 -10.6768 -10.5285  -6.4607  -6.4392  -4.8676  -4.8023
    -2.6101  -2.5928  -2.3173  -2.2201   0.8683   0.9675   2.7338   2.8751
     4.3238   4.3592   5.5646   5.6131

          k = 0.1072-0.7155-1.1852 (  2274 PWs)   bands (ev):

   -15.7461 -15.7416 -10.4066 -10.2544  -6.0833  -6.0666  -4.7453  -4.6770
    -3.9548  -3.9420  -2.1466  -2.0462   1.3045   1.4085   1.4354   1.5660
     3.1116   3.1558   5.6680   5.7330

          k =-0.5466 0.0642 0.0001 (  2288 PWs)   bands (ev):

   -16.2582 -16.2504 -10.9015 -10.7572  -6.5663  -6.5291  -4.9611  -4.8918
    -2.7367  -2.6640  -0.8963  -0.8700  -0.1526  -0.0484   4.2601   4.4338
     5.5245   5.5792   6.2956   6.3199

          k =-0.5468 0.0638 0.5928 (  2292 PWs)   bands (ev):

   -16.0192 -16.0118 -10.6628 -10.5152  -6.2608  -6.2248  -4.8535  -4.7839
    -2.6688  -2.6400  -2.5515  -2.4756   0.3802   0.4864   2.7700   2.9225
     4.6144   4.6407   5.9496   5.9858

          k =-0.5461 0.0648-1.1852 (  2286 PWs)   bands (ev):

   -15.7570 -15.7500 -10.3947 -10.2431  -5.9120  -5.8774  -4.7333  -4.6612
    -4.0129  -3.9895  -2.3515  -2.2724   0.8572   0.9663   1.5132   1.6545
     3.3789   3.4305   6.0915   6.1329

          k =-0.4399-0.6520 0.0003 (  2294 PWs)   bands (ev):

   -16.5122 -15.8846 -12.0423  -8.7175  -7.4503  -7.3428  -5.7051  -4.0041
    -3.3137  -1.4420  -1.1287  -0.2222   0.2786   1.3579   2.0387   3.4907
     6.0733   6.1576   6.4197   7.9041

          k =-0.4402-0.6523 0.5930 (  2280 PWs)   bands (ev):

   -16.2619 -15.6695 -11.7583  -8.5464  -7.2505  -7.0149  -5.3926  -3.8178
    -3.2529  -3.1634  -1.5540  -1.0084   0.3993   0.4012   1.7640   3.4542
     4.6736   4.8757   6.5842   6.6238

          k =-0.4394-0.6513-1.1850 (  2286 PWs)   bands (ev):

   -15.9854 -15.4359 -11.4382  -8.3493  -7.0466  -6.6235  -5.0314  -4.5377
    -3.6197  -3.1877  -2.7637  -0.9385  -0.8839   0.7195   2.1339   2.6609
     3.6836   4.3067   5.5137   5.8115

     the Fermi energy is     4.1453 ev

!    total energy              =     -90.19802308 Ry
     Harris-Foulkes estimate   =     -90.19802315 Ry
     estimated scf accuracy    <       0.00000008 Ry

     The total energy is the sum of the following terms:

     one-electron contribution =     -47.67011685 Ry
     hartree contribution      =      35.68670244 Ry
     xc contribution           =     -27.11333687 Ry
     ewald contribution        =     -51.10011385 Ry
     smearing contrib. (-TS)   =      -0.00115796 Ry

     convergence has been achieved in   9 iterations

     Forces acting on atoms (cartesian axes, Ry/au):

     atom    1 type  1   force =     0.00597845   -0.00829500    0.00004368
     atom    2 type  1   force =     0.01917078   -0.01907539    0.00006012
     atom    3 type  1   force =     0.00535701    0.01036429    0.00021211
     atom    4 type  1   force =    -0.01633543    0.00848477   -0.00021339
     atom    5 type  1   force =    -0.01915686    0.01926000   -0.00013272
     atom    6 type  1   force =    -0.00583237    0.00829815   -0.00016728
     atom    7 type  1   force =     0.01624036   -0.00829240    0.00009714
     atom    8 type  1   force =    -0.00542195   -0.01074441    0.00010035

     Total force =     0.051276     Total SCF correction =     0.000472


     Computing stress (Cartesian axis) and pressure

          total   stress  (Ry/bohr**3)                   (kbar)     P=       -0.79
  -0.00000152  -0.00000294   0.00000001           -0.22       -0.43        0.00
  -0.00000294   0.00011170   0.00000074           -0.43       16.43        0.11
   0.00000001   0.00000074  -0.00012624            0.00        0.11      -18.57


     number of scf cycles    =  39
     number of bfgs steps    =  35

     enthalpy old            =     -90.1965018512 Ry
     enthalpy new            =     -90.1979794245 Ry

     CASE: enthalpy_new < enthalpy_old

     new trust radius        =       0.0577411132 bohr
     new conv_thr            =       0.0000001478 Ry

     new unit-cell volume =    634.52361 a.u.^3 (    94.02670 Ang^3 )
     density =      1.69539 g/cm^3

CELL_PARAMETERS (bohr)
  12.232143536   1.818370526   0.007959461
   1.062846906   9.474287113   0.008619231
   0.002109518   0.003907544   5.568043093

ATOMIC_POSITIONS (crystal)
C             0.4372894944        0.7114216061        0.5072445706
C             0.0243463666       -0.0771927147        0.5076784272
C             0.9356504812        0.2091357374        0.5068419347
C             0.5266434767        0.4227328895        0.5080028882
C             0.2156649385        0.7317293324        0.5071157699
C             0.8027574194        0.9431227744        0.5075586928
C             0.7134894042        0.2318229427        0.5069868461
C             0.3045154190        0.4455024323        0.5074018705



     Writing output data file ./pp.save/
     NEW-OLD atomic charge density approx. for the potential
     extrapolated charge   31.61343, renormalised to   32.00000

     total cpu time spent up to now is     2274.5 secs

     Self-consistent Calculation

     iteration #  1     ecut=    40.00 Ry     beta= 0.50
     Davidson diagonalization with overlap
     ethr =  1.00E-06,  avg # of iterations =  6.2

     total cpu time spent up to now is     2301.4 secs

     total energy              =     -90.19190379 Ry
     Harris-Foulkes estimate   =     -90.62173496 Ry
     estimated scf accuracy    <       0.00592922 Ry

     iteration #  2     ecut=    40.00 Ry     beta= 0.50
     Davidson diagonalization with overlap
     ethr =  1.85E-05,  avg # of iterations =  3.0

     total cpu time spent up to now is     2316.9 secs

     total energy              =     -90.20031637 Ry
     Harris-Foulkes estimate   =     -90.20315905 Ry
     estimated scf accuracy    <       0.00853776 Ry

     iteration #  3     ecut=    40.00 Ry     beta= 0.50
     Davidson diagonalization with overlap
     ethr =  1.85E-05,  avg # of iterations =  1.2

     total cpu time spent up to now is     2325.1 secs

     total energy              =     -90.20021205 Ry
     Harris-Foulkes estimate   =     -90.20080091 Ry
     estimated scf accuracy    <       0.00215734 Ry

     iteration #  4     ecut=    40.00 Ry     beta= 0.50
     Davidson diagonalization with overlap
     ethr =  6.74E-06,  avg # of iterations =  1.3

     total cpu time spent up to now is     2334.1 secs

     total energy              =     -90.20006575 Ry
     Harris-Foulkes estimate   =     -90.20036285 Ry
     estimated scf accuracy    <       0.00085968 Ry

     iteration #  5     ecut=    40.00 Ry     beta= 0.50
     Davidson diagonalization with overlap
     ethr =  2.69E-06,  avg # of iterations =  2.2

     total cpu time spent up to now is     2345.2 secs

     total energy              =     -90.20014096 Ry
     Harris-Foulkes estimate   =     -90.20016881 Ry
     estimated scf accuracy    <       0.00011747 Ry

     iteration #  6     ecut=    40.00 Ry     beta= 0.50
     Davidson diagonalization with overlap
     ethr =  3.67E-07,  avg # of iterations =  2.0

     total cpu time spent up to now is     2356.5 secs

     total energy              =     -90.20012319 Ry
     Harris-Foulkes estimate   =     -90.20016151 Ry
     estimated scf accuracy    <       0.00008814 Ry

     iteration #  7     ecut=    40.00 Ry     beta= 0.50
     Davidson diagonalization with overlap
     ethr =  2.75E-07,  avg # of iterations =  2.0

     total cpu time spent up to now is     2367.4 secs

     total energy              =     -90.20013180 Ry
     Harris-Foulkes estimate   =     -90.20013473 Ry
     estimated scf accuracy    <       0.00000604 Ry

     iteration #  8     ecut=    40.00 Ry     beta= 0.50
     Davidson diagonalization with overlap
     ethr =  1.89E-08,  avg # of iterations =  3.0

     total cpu time spent up to now is     2382.1 secs

     total energy              =     -90.20013424 Ry
     Harris-Foulkes estimate   =     -90.20013481 Ry
     estimated scf accuracy    <       0.00000172 Ry

     iteration #  9     ecut=    40.00 Ry     beta= 0.50
     Davidson diagonalization with overlap
     ethr =  5.38E-09,  avg # of iterations =  1.2

     total cpu time spent up to now is     2390.8 secs

     total energy              =     -90.20013429 Ry
     Harris-Foulkes estimate   =     -90.20013439 Ry
     estimated scf accuracy    <       0.00000033 Ry

     iteration # 10     ecut=    40.00 Ry     beta= 0.50
     Davidson diagonalization with overlap
