
     Program PWSCF v.6.5 starts on 10Jul2022 at 10:26:17 

     This program is part of the open-source Quantum ESPRESSO suite
     for quantum simulation of materials; please cite
         "P. Giannozzi et al., J. Phys.:Condens. Matter 21 395502 (2009);
         "P. Giannozzi et al., J. Phys.:Condens. Matter 29 465901 (2017);
          URL http://www.quantum-espresso.org", 
     in publications or presentations arising from this work. More details at
     http://www.quantum-espresso.org/quote

     Parallel version (MPI), running on    96 processors

     MPI processes distributed on     2 nodes
     R & G space division:  proc/nbgrp/npool/nimage =      96
     Waiting for input...
     Reading input from standard input
     Message from routine read_cards :
     DEPRECATED: no units specified in CELL_PARAMETERS card

     Current dimensions of program PWSCF are:
     Max number of different atomic species (ntypx) = 10
     Max number of k-points (npk) =  40000
     Max angular momentum in pseudopotentials (lmaxx) =  3

     Subspace diagonalization in iterative solution of the eigenvalue problem:
     one sub-group per band group will be used
     scalapack distributed-memory algorithm (size of sub-group:  9*  9 procs)

 
     Parallelization info
     --------------------
     sticks:   dense  smooth     PW     G-vecs:    dense   smooth      PW
     Min          15      15      4                  196      196      32
     Max          16      16      5                  200      200      37
     Sum        1517    1517    479                18951    18951    3345
 


     bravais-lattice index     =            0
     lattice parameter (alat)  =      13.9113  a.u.
     unit-cell volume          =     553.0755 (a.u.)^3
     number of atoms/cell      =            8
     number of atomic types    =            1
     number of electrons       =        32.00
     number of Kohn-Sham states=           20
     kinetic-energy cutoff     =      40.0000  Ry
     charge density cutoff     =     160.0000  Ry
     convergence threshold     =      1.0E-06
     mixing beta               =       0.5000
     number of iterations used =            8  plain     mixing
     Exchange-correlation=  SLA  PW   PBE  PBE
                           (   1   4   3   4   0   0   0)
     nstep                     =          250


     celldm(1)=  13.911254  celldm(2)=   0.000000  celldm(3)=   0.000000
     celldm(4)=   0.000000  celldm(5)=   0.000000  celldm(6)=   0.000000

     crystal axes: (cart. coord. in units of alat)
               a(1) = (   0.999737   0.022917  -0.000288 )  
               a(2) = (   0.013600   0.613920  -0.000201 )  
               a(3) = (   0.000597   0.000755   0.334894 )  

     reciprocal axes: (cart. coord. in units 2 pi/alat)
               b(1) = (  1.000770 -0.022171 -0.001733 )  
               b(2) = ( -0.037358  1.629703 -0.003606 )  
               b(3) = (  0.000837  0.000960  2.986013 )  


     PseudoPot. # 1 for C  read from file:
     ./C.pbe-van_bm.upf
     MD5 check sum: 1a69bf6b8db32088f5b2163dbdb77a27
     Pseudo is Ultrasoft, Zval =  4.0
     Generated by new atomic code, or converted to UPF format
     Using radial grid of  721 points,  4 beta functions with: 
                l(1) =   0
                l(2) =   0
                l(3) =   1
                l(4) =   1
     Q(r) pseudized with  8 coefficients,  rinner =    0.800   0.800   0.800


     atomic species   valence    mass     pseudopotential
        C              4.00    12.00000     C ( 1.00)

     No symmetry found



   Cartesian axes

     site n.     atom                  positions (alat units)
         1           C   tau(   1) = (   0.3105604   0.5121780   0.1685516  )
         2           C   tau(   2) = (   0.6684089   0.3380679   0.1676369  )
         3           C   tau(   3) = (   0.1129011  -0.0754086   0.1684989  )
         4           C   tau(   4) = (   0.8556797   0.3245548   0.1680590  )
         5           C   tau(   5) = (   0.2100628   0.0919746   0.1682025  )
         6           C   tau(   6) = (   0.3974290   0.0790052   0.1682543  )
         7           C   tau(   7) = (   0.9531515   0.4918120   0.1678128  )
         8           C   tau(   8) = (   0.7692247   0.5185704   0.1673627  )

     number of k points=    12  Marzari-Vanderbilt smearing, width (Ry)=  0.0200
                       cart. coord. in units 2pi/alat
        k(    1) = (   0.0000000   0.0000000   0.0000000), wk =   0.1250000
        k(    2) = (   0.0002092   0.0002401   0.7465032), wk =   0.2500000
        k(    3) = (  -0.0004184  -0.0004802  -1.4930065), wk =   0.1250000
        k(    4) = (   0.0186791  -0.8148513   0.0018032), wk =   0.1250000
        k(    5) = (   0.0188883  -0.8146112   0.7483065), wk =   0.2500000
        k(    6) = (   0.0182607  -0.8153315  -1.4912032), wk =   0.1250000
        k(    7) = (  -0.5003852   0.0110856   0.0008665), wk =   0.1250000
        k(    8) = (  -0.5001760   0.0113257   0.7473697), wk =   0.2500000
        k(    9) = (  -0.5008036   0.0106054  -1.4921400), wk =   0.1250000
        k(   10) = (  -0.4817061  -0.8037657   0.0026697), wk =   0.1250000
        k(   11) = (  -0.4814969  -0.8035256   0.7491729), wk =   0.2500000
        k(   12) = (  -0.4821245  -0.8042459  -1.4903367), wk =   0.1250000

     Dense  grid:    18951 G-vectors     FFT dimensions: (  60,  36,  20)

     Estimated max dynamical RAM per process >       2.48 MB

     Estimated total dynamical RAM >     237.88 MB

     Initial potential from superposition of free atoms

     starting charge   31.99968, renormalised to   32.00000
     Starting wfcs are   32 randomized atomic wfcs

     total cpu time spent up to now is        0.6 secs

     Self-consistent Calculation

     iteration #  1     ecut=    40.00 Ry     beta= 0.50
     Davidson diagonalization with overlap
     ethr =  1.00E-02,  avg # of iterations =  2.0

     total cpu time spent up to now is        1.2 secs

     total energy              =     -89.75368993 Ry
     Harris-Foulkes estimate   =     -89.99210567 Ry
     estimated scf accuracy    <       0.49471027 Ry

     iteration #  2     ecut=    40.00 Ry     beta= 0.50
     Davidson diagonalization with overlap
     ethr =  1.55E-03,  avg # of iterations =  2.0

     total cpu time spent up to now is        1.7 secs

     total energy              =     -89.77394159 Ry
     Harris-Foulkes estimate   =     -89.81608961 Ry
     estimated scf accuracy    <       0.07734539 Ry

     iteration #  3     ecut=    40.00 Ry     beta= 0.50
     Davidson diagonalization with overlap
     ethr =  2.42E-04,  avg # of iterations =  3.5

     total cpu time spent up to now is        2.5 secs

     total energy              =     -89.75451388 Ry
     Harris-Foulkes estimate   =     -89.84039506 Ry
     estimated scf accuracy    <       0.35811892 Ry

     iteration #  4     ecut=    40.00 Ry     beta= 0.50
     Davidson diagonalization with overlap
     ethr =  2.42E-04,  avg # of iterations =  3.0

     total cpu time spent up to now is        3.2 secs

     total energy              =     -89.79906040 Ry
     Harris-Foulkes estimate   =     -89.80117062 Ry
     estimated scf accuracy    <       0.00778684 Ry

     iteration #  5     ecut=    40.00 Ry     beta= 0.50
     Davidson diagonalization with overlap
     ethr =  2.43E-05,  avg # of iterations =  3.8

     total cpu time spent up to now is        4.0 secs

     total energy              =     -89.79917025 Ry
     Harris-Foulkes estimate   =     -89.80104988 Ry
     estimated scf accuracy    <       0.00738647 Ry

     iteration #  6     ecut=    40.00 Ry     beta= 0.50
     Davidson diagonalization with overlap
     ethr =  2.31E-05,  avg # of iterations =  2.9

     total cpu time spent up to now is        4.6 secs

     total energy              =     -89.80005731 Ry
     Harris-Foulkes estimate   =     -89.80079767 Ry
     estimated scf accuracy    <       0.00422664 Ry

     iteration #  7     ecut=    40.00 Ry     beta= 0.50
     Davidson diagonalization with overlap
     ethr =  1.32E-05,  avg # of iterations =  1.0

     total cpu time spent up to now is        5.0 secs

     total energy              =     -89.80042453 Ry
     Harris-Foulkes estimate   =     -89.80043781 Ry
     estimated scf accuracy    <       0.00006616 Ry

     iteration #  8     ecut=    40.00 Ry     beta= 0.50
     Davidson diagonalization with overlap
     ethr =  2.07E-07,  avg # of iterations =  4.7

     total cpu time spent up to now is        6.0 secs

     total energy              =     -89.80044352 Ry
     Harris-Foulkes estimate   =     -89.80045528 Ry
     estimated scf accuracy    <       0.00003997 Ry

     iteration #  9     ecut=    40.00 Ry     beta= 0.50
     Davidson diagonalization with overlap
     ethr =  1.25E-07,  avg # of iterations =  2.2

     total cpu time spent up to now is        6.5 secs

     total energy              =     -89.80044834 Ry
     Harris-Foulkes estimate   =     -89.80044982 Ry
     estimated scf accuracy    <       0.00000479 Ry

     iteration # 10     ecut=    40.00 Ry     beta= 0.50
     Davidson diagonalization with overlap
     ethr =  1.50E-08,  avg # of iterations =  2.5

     total cpu time spent up to now is        7.2 secs

     End of self-consistent calculation

          k = 0.0000 0.0000 0.0000 (  2379 PWs)   bands (ev):

   -16.4132 -16.0042 -10.9432  -8.3612  -6.2037  -5.1168  -4.7405  -1.8188
    -0.9573  -0.3716   1.2192   1.7457   1.8858   2.5392   2.9971   6.2356
     6.7033   8.0154   9.0751  10.1821

          k = 0.0002 0.0002 0.7465 (  2360 PWs)   bands (ev):

   -15.6976 -15.3392 -10.2068  -7.7397  -5.7205  -4.3572  -3.8805  -2.0709
    -1.3912  -0.8825  -0.3758   0.5519   2.4821   2.5632   3.2119   3.3607
     5.9755   6.6110   6.7240   7.9540

          k =-0.0004-0.0005-1.4930 (  2370 PWs)   bands (ev):

   -14.7695 -14.4990  -9.2092  -6.9602  -5.0554  -4.9499  -3.6999  -3.3369
    -2.6005  -0.3712   0.1397   0.2213   1.7023   3.1116   3.1152   3.9806
     4.0320   4.6101   4.7649   6.6143

          k = 0.0187-0.8149 0.0018 (  2358 PWs)   bands (ev):

   -16.3535 -15.9979 -10.9599  -8.5684  -6.1207  -5.8642  -4.8355  -1.4514
    -0.5910   0.4523   1.3417   1.5294   1.9321   2.9972   3.4592   6.5268
     6.7317   8.3788   8.9302  10.1647

          k = 0.0189-0.8146 0.7483 (  2359 PWs)   bands (ev):

   -15.6468 -15.3335 -10.2230  -7.9133  -5.6400  -5.0300  -3.9872  -1.8818
    -1.1750  -0.8330  -0.1095   1.3663   2.0356   2.5673   3.5709   4.2218
     5.4956   6.5761   6.7397   7.9185

          k = 0.0183-0.8153-1.4912 (  2358 PWs)   bands (ev):

   -14.7337 -14.4944  -9.2248  -7.0840  -5.0135  -4.8079  -3.8615  -3.6920
    -2.6893  -0.1692   0.2112   0.4374   2.5394   2.6116   3.3149   3.5157
     3.8778   4.0612   5.4947   7.0679

          k =-0.5004 0.0111 0.0009 (  2380 PWs)   bands (ev):

   -16.3898 -16.0348 -10.8718  -8.5436  -6.0617  -5.3009  -4.3583  -2.1599
    -0.7965  -0.5609   0.8131   1.9037   2.2307   2.7942   2.9590   6.6271
     6.7828   7.3175   9.0215  10.2172

          k =-0.5002 0.0113 0.7474 (  2365 PWs)   bands (ev):

   -15.6773 -15.3650 -10.1479  -7.8953  -5.5877  -4.5117  -3.5506  -2.0074
    -1.5795  -1.3356  -0.1651   0.8770   1.7106   2.9315   3.0937   4.0268
     5.7711   6.6740   6.7455   8.0010

          k =-0.5008 0.0106-1.4921 (  2376 PWs)   bands (ev):

   -14.7545 -14.5171  -9.1675  -7.0721  -4.9632  -4.9012  -3.8087  -3.4337
    -2.3502  -0.7204   0.3946   0.4292   1.6210   2.8267   2.8764   4.1340
     4.2021   4.4123   4.8393   6.9833

          k =-0.4817-0.8038 0.0027 (  2378 PWs)   bands (ev):

   -16.3379 -16.0173 -10.9463  -8.5373  -6.2538  -6.0472  -4.3508  -1.9695
    -0.3087   0.5914   0.8125   1.9408   2.2217   2.9808   3.1411   6.7209
     6.8584   8.0586   9.0343  10.1990

          k =-0.4815-0.8035 0.7492 (  2353 PWs)   bands (ev):

   -15.6328 -15.3504 -10.2099  -7.8970  -5.7275  -5.1833  -3.5620  -1.8606
    -1.4508  -1.1132   0.1726   1.4163   1.9455   2.7883   3.7402   3.7613
     5.7370   6.6274   6.8302   8.0417

          k =-0.4821-0.8042-1.4903 (  2352 PWs)   bands (ev):

   -14.7226 -14.5072  -9.2118  -7.0889  -5.0481  -4.7815  -3.9652  -3.7388
    -2.3632  -0.6023   0.1858   0.7043   2.5463   2.8719   2.9160   3.7559
     4.0366   4.1264   5.2900   6.4680

     the Fermi energy is     4.2434 ev

!    total energy              =     -89.80044927 Ry
     Harris-Foulkes estimate   =     -89.80044942 Ry
     estimated scf accuracy    <       0.00000038 Ry

     The total energy is the sum of the following terms:

     one-electron contribution =     -33.54283543 Ry
     hartree contribution      =      30.35123884 Ry
     xc contribution           =     -27.02794226 Ry
     ewald contribution        =     -59.58165239 Ry
     smearing contrib. (-TS)   =       0.00074198 Ry

     convergence has been achieved in  10 iterations

     Forces acting on atoms (cartesian axes, Ry/au):

     atom    1 type  1   force =     0.08758468    0.02091954   -0.00040315
     atom    2 type  1   force =     0.02702616    0.05789982    0.00018115
     atom    3 type  1   force =    -0.04243510    0.03190365    0.00020277
     atom    4 type  1   force =     0.03619883   -0.01265630   -0.00007822
     atom    5 type  1   force =    -0.03561211    0.01319456   -0.00002323
     atom    6 type  1   force =    -0.02749837   -0.05819547    0.00012099
     atom    7 type  1   force =     0.04312775   -0.03212487   -0.00030290
     atom    8 type  1   force =    -0.08839184   -0.02094094    0.00030259

     Total force =     0.182236     Total SCF correction =     0.000872


     Computing stress (Cartesian axis) and pressure

          total   stress  (Ry/bohr**3)                   (kbar)     P=       47.42
   0.00023050  -0.00071355  -0.00000430           33.91     -104.97       -0.63
  -0.00071355  -0.00009596   0.00000198         -104.97      -14.12        0.29
  -0.00000430   0.00000198   0.00083244           -0.63        0.29      122.46


     BFGS Geometry Optimization

     number of scf cycles    =   1
     number of bfgs steps    =   0

     enthalpy new            =     -89.8004116708 Ry

     new trust radius        =       0.0978778134 bohr
     new conv_thr            =       0.0000010000 Ry

     new unit-cell volume =    566.29423 a.u.^3 (    83.91615 Ang^3 )
     density =      1.89966 g/cm^3

CELL_PARAMETERS (bohr)
  13.982033502   0.069940490  -0.005563473
   0.037940317   8.516522886  -0.002456055
   0.007659372   0.010557241   4.755745450

ATOMIC_POSITIONS (crystal)
C             0.3054195189        0.8247036218        0.5039691781
C             0.6629899514        0.5320853359        0.5014945070
C             0.1112643629       -0.1238675837        0.5032051733
C             0.8514763113        0.4947751247        0.5028385148
C             0.2053110517        0.1430783834        0.5025127830
C             0.3938065119        0.1065572191        0.5028382975
C             0.9458448311        0.7614148337        0.5022963592
C             0.7517044608        0.8135590650        0.5009471871



     Writing output data file ./pp.save/
     NEW-OLD atomic charge density approx. for the potential
     extrapolated charge   32.74695, renormalised to   32.00000

     total cpu time spent up to now is        7.4 secs

     Self-consistent Calculation

     iteration #  1     ecut=    40.00 Ry     beta= 0.50
     Davidson diagonalization with overlap
     ethr =  1.00E-06,  avg # of iterations = 10.8

     total cpu time spent up to now is        9.8 secs

     total energy              =     -89.72663159 Ry
     Harris-Foulkes estimate   =     -89.22933427 Ry
     estimated scf accuracy    <       0.12927534 Ry

     iteration #  2     ecut=    40.00 Ry     beta= 0.50
     Davidson diagonalization with overlap
     ethr =  4.04E-04,  avg # of iterations =  4.0

     total cpu time spent up to now is       10.7 secs

     total energy              =     -89.75862438 Ry
     Harris-Foulkes estimate   =     -89.96744512 Ry
     estimated scf accuracy    <       0.91150315 Ry

     iteration #  3     ecut=    40.00 Ry     beta= 0.50
     Davidson diagonalization with overlap
     ethr =  4.04E-04,  avg # of iterations =  3.0

     total cpu time spent up to now is       11.5 secs

     total energy              =     -89.82464914 Ry
     Harris-Foulkes estimate   =     -89.83512163 Ry
     estimated scf accuracy    <       0.05393514 Ry

     iteration #  4     ecut=    40.00 Ry     beta= 0.50
     Davidson diagonalization with overlap
     ethr =  1.69E-04,  avg # of iterations =  1.0

     total cpu time spent up to now is       11.9 secs

     total energy              =     -89.82335230 Ry
     Harris-Foulkes estimate   =     -89.82774669 Ry
     estimated scf accuracy    <       0.01779734 Ry

     iteration #  5     ecut=    40.00 Ry     beta= 0.50
     Davidson diagonalization with overlap
     ethr =  5.56E-05,  avg # of iterations =  2.2

     total cpu time spent up to now is       12.5 secs

     total energy              =     -89.82472533 Ry
     Harris-Foulkes estimate   =     -89.82516722 Ry
     estimated scf accuracy    <       0.00097433 Ry

     iteration #  6     ecut=    40.00 Ry     beta= 0.50
     Davidson diagonalization with overlap
     ethr =  3.04E-06,  avg # of iterations =  4.1

     total cpu time spent up to now is       13.5 secs

     total energy              =     -89.82511567 Ry
     Harris-Foulkes estimate   =     -89.82524779 Ry
     estimated scf accuracy    <       0.00042894 Ry

     iteration #  7     ecut=    40.00 Ry     beta= 0.50
     Davidson diagonalization with overlap
     ethr =  1.34E-06,  avg # of iterations =  2.4

     total cpu time spent up to now is       14.1 secs

     total energy              =     -89.82513380 Ry
     Harris-Foulkes estimate   =     -89.82519404 Ry
     estimated scf accuracy    <       0.00033837 Ry

     iteration #  8     ecut=    40.00 Ry     beta= 0.50
     Davidson diagonalization with overlap
     ethr =  1.06E-06,  avg # of iterations =  1.0

     total cpu time spent up to now is       14.5 secs

     total energy              =     -89.82513964 Ry
     Harris-Foulkes estimate   =     -89.82517956 Ry
     estimated scf accuracy    <       0.00019427 Ry

     iteration #  9     ecut=    40.00 Ry     beta= 0.50
     Davidson diagonalization with overlap
     ethr =  6.07E-07,  avg # of iterations =  1.2

     total cpu time spent up to now is       15.0 secs

     total energy              =     -89.82515469 Ry
     Harris-Foulkes estimate   =     -89.82515659 Ry
     estimated scf accuracy    <       0.00000605 Ry

     iteration # 10     ecut=    40.00 Ry     beta= 0.50
     Davidson diagonalization with overlap
     ethr =  1.89E-08,  avg # of iterations =  3.7

     total cpu time spent up to now is       15.9 secs

     total energy              =     -89.82515738 Ry
     Harris-Foulkes estimate   =     -89.82515809 Ry
     estimated scf accuracy    <       0.00000360 Ry

     iteration # 11     ecut=    40.00 Ry     beta= 0.50
     Davidson diagonalization with overlap
     ethr =  1.12E-08,  avg # of iterations =  1.3

     total cpu time spent up to now is       16.4 secs

     End of self-consistent calculation

          k = 0.0000 0.0000 0.0000 (  2379 PWs)   bands (ev):

   -16.4007 -15.9763 -11.2785  -8.1434  -6.0992  -5.4633  -5.1044  -2.1487
    -1.0481  -0.7292   0.7485   1.4058   1.6823   2.5780   2.6692   5.8472
     5.9662   7.6237   9.1425   9.4281

          k = 0.0003 0.0002 0.7313 (  2360 PWs)   bands (ev):

   -15.7500 -15.3755 -10.6233  -7.5874  -5.6710  -4.7560  -4.3215  -2.2983
    -1.6804  -1.1738  -0.5943   0.2576   1.9646   2.3634   2.9348   3.3233
     5.8602   6.2808   6.3110   7.2734

          k =-0.0006-0.0004-1.4626 (  2370 PWs)   bands (ev):

   -14.9245 -14.6321  -9.7621  -6.9075  -5.1145  -4.9214  -3.8169  -3.6249
    -3.2048  -0.9624  -0.0810  -0.0539   1.2760   2.5392   3.6272   3.7555
     3.7602   3.9885   4.6465   6.7711

          k = 0.0041-0.8167 0.0018 (  2358 PWs)   bands (ev):

   -16.3418 -15.9707 -11.2694  -8.3071  -6.2609  -5.9540  -5.3717  -1.8548
    -0.8524   0.3769   1.2604   1.3229   1.4540   2.5768   3.5375   5.8959
     6.0046   7.8105   9.0294   9.3124

          k = 0.0044-0.8165 0.7331 (  2359 PWs)   bands (ev):

   -15.6998 -15.3705 -10.6159  -7.7260  -5.5562  -5.4769  -4.5626  -2.1047
    -1.3762  -1.2455  -0.4085   1.3444   1.7958   2.3063   3.1485   4.2004
     5.5356   5.9669   6.1731   7.1817

          k = 0.0035-0.8172-1.4608 (  2358 PWs)   bands (ev):

   -14.8882 -14.6282  -9.7576  -7.0106  -5.0523  -4.7761  -4.3941  -3.6183
    -3.4015  -0.7889   0.0554   0.0859   2.3127   2.9389   3.0624   3.2916
     3.4153   3.5570   5.3373   7.2584

          k =-0.4975 0.0022 0.0008 (  2380 PWs)   bands (ev):

   -16.3747 -16.0110 -11.2107  -8.3731  -5.8328  -5.5886  -4.8649  -2.5003
    -0.8647  -0.7623   0.2557   1.4253   2.0926   2.5331   2.9495   6.0557
     6.1941   6.9080   8.9943   9.4585

          k =-0.4972 0.0024 0.7321 (  2365 PWs)   bands (ev):

   -15.7272 -15.4051 -10.5676  -7.7836  -5.4458  -4.8650  -4.0965  -2.2169
    -1.9659  -1.5484  -0.3545   0.6927   1.1606   2.7343   2.8562   3.8585
     5.8376   6.0952   6.2855   7.4256

          k =-0.4981 0.0018-1.4618 (  2376 PWs)   bands (ev):

   -14.9069 -14.6539  -9.7225  -7.0525  -4.9613  -4.8698  -3.8943  -3.7465
    -3.0006  -1.3092   0.1367   0.2220   1.2619   2.1963   3.1265   3.8882
     3.9011   4.0986   4.7664   7.1055

          k =-0.4934-0.8145 0.0026 (  2378 PWs)   bands (ev):

   -16.3251 -15.9919 -11.2493  -8.3271  -6.3738  -6.0439  -4.9849  -2.4764
    -0.4027   0.5726   0.7893   1.4630   1.8991   2.5588   3.1734   6.0117
     6.2027   7.4891   9.0694   9.3091

          k =-0.4931-0.8143 0.7339 (  2353 PWs)   bands (ev):

   -15.6847 -15.3891 -10.5976  -7.7524  -5.5957  -5.5744  -4.2304  -2.0777
    -1.9801  -1.2471  -0.0133   1.3446   1.8043   2.4831   3.3029   3.7467
     5.5532   6.1972   6.2483   7.3343

          k =-0.4940-0.8149-1.4600 (  2352 PWs)   bands (ev):

   -14.8757 -14.6429  -9.7414  -7.0451  -5.0506  -4.7502  -4.4675  -3.6668
    -3.1280  -1.2727   0.0703   0.4040   2.3152   2.6881   3.0853   3.4809
     3.6950   3.7195   5.1019   6.5609

     the Fermi energy is     3.9943 ev

!    total energy              =     -89.82515747 Ry
     Harris-Foulkes estimate   =     -89.82515768 Ry
     estimated scf accuracy    <       0.00000025 Ry

     The total energy is the sum of the following terms:

     one-electron contribution =     -34.92897886 Ry
     hartree contribution      =      30.76306623 Ry
     xc contribution           =     -26.98319409 Ry
     ewald contribution        =     -58.67732103 Ry
     smearing contrib. (-TS)   =       0.00127028 Ry

     convergence has been achieved in  11 iterations

     Forces acting on atoms (cartesian axes, Ry/au):

     atom    1 type  1   force =    -0.02902997    0.01116539   -0.00041397
     atom    2 type  1   force =    -0.00526061    0.00438949    0.00022598
     atom    3 type  1   force =     0.08857740    0.03050277    0.00018812
     atom    4 type  1   force =     0.00092727   -0.01030757   -0.00022088
     atom    5 type  1   force =    -0.00129538    0.01073403    0.00006651
     atom    6 type  1   force =     0.00553511   -0.00474486   -0.00001268
     atom    7 type  1   force =    -0.08886191   -0.03037516   -0.00034270
     atom    8 type  1   force =     0.02940809   -0.01136409    0.00050962

     Total force =     0.141002     Total SCF correction =     0.001325


     Computing stress (Cartesian axis) and pressure

          total   stress  (Ry/bohr**3)                   (kbar)     P=       35.60
  -0.00007315   0.00009281  -0.00000621          -10.76       13.65       -0.91
   0.00009281   0.00033236   0.00000144           13.65       48.89        0.21
  -0.00000621   0.00000144   0.00046674           -0.91        0.21       68.66


     number of scf cycles    =   2
     number of bfgs steps    =   1

     enthalpy old            =     -89.8004116708 Ry
     enthalpy new            =     -89.8251189780 Ry

     CASE: enthalpy_new < enthalpy_old

     new trust radius        =       0.0804436962 bohr
     new conv_thr            =       0.0000008886 Ry

     new unit-cell volume =    579.89032 a.u.^3 (    85.93088 Ang^3 )
     density =      1.85512 g/cm^3

CELL_PARAMETERS (bohr)
  13.984551874   0.021867078  -0.008042587
   0.005872406   8.574324084  -0.002143718
   0.006810570   0.010823767   4.836122372

ATOMIC_POSITIONS (crystal)
C             0.3055756310        0.8267175625        0.5038620237
C             0.6632471535        0.5347667879        0.5015533601
C             0.1158795398       -0.1198048599        0.5032610462
C             0.8524236290        0.4931792224        0.5027896277
C             0.2043524970        0.1447404932        0.5025244339
C             0.3935568902        0.1038265590        0.5028423299
C             0.9412274704        0.7573575448        0.5022032683
C             0.7515541891        0.8115226901        0.5010659102



     Writing output data file ./pp.save/
     NEW-OLD atomic charge density approx. for the potential
     extrapolated charge   32.75026, renormalised to   32.00000

     total cpu time spent up to now is       16.5 secs

     Self-consistent Calculation

     iteration #  1     ecut=    40.00 Ry     beta= 0.50
     Davidson diagonalization with overlap
     ethr =  1.00E-06,  avg # of iterations =  8.7

     total cpu time spent up to now is       18.6 secs

     total energy              =     -89.75452806 Ry
     Harris-Foulkes estimate   =     -89.19080217 Ry
     estimated scf accuracy    <       0.08249715 Ry

     iteration #  2     ecut=    40.00 Ry     beta= 0.50
     Davidson diagonalization with overlap
     ethr =  2.58E-04,  avg # of iterations =  3.8

     total cpu time spent up to now is       19.7 secs

     total energy              =     -89.78405244 Ry
     Harris-Foulkes estimate   =     -89.93388886 Ry
     estimated scf accuracy    <       0.67898621 Ry

     iteration #  3     ecut=    40.00 Ry     beta= 0.50
     Davidson diagonalization with overlap
     ethr =  2.58E-04,  avg # of iterations =  3.0

     total cpu time spent up to now is       20.6 secs

     total energy              =     -89.83098773 Ry
     Harris-Foulkes estimate   =     -89.83710534 Ry
     estimated scf accuracy    <       0.03755398 Ry

     iteration #  4     ecut=    40.00 Ry     beta= 0.50
     Davidson diagonalization with overlap
     ethr =  1.17E-04,  avg # of iterations =  1.0

     total cpu time spent up to now is       21.1 secs

     total energy              =     -89.82952335 Ry
     Harris-Foulkes estimate   =     -89.83236583 Ry
     estimated scf accuracy    <       0.01743983 Ry

     iteration #  5     ecut=    40.00 Ry     beta= 0.50
     Davidson diagonalization with overlap
     ethr =  5.45E-05,  avg # of iterations =  1.2

     total cpu time spent up to now is       21.6 secs

     total energy              =     -89.82805672 Ry
     Harris-Foulkes estimate   =     -89.83017717 Ry
     estimated scf accuracy    <       0.00608042 Ry

     iteration #  6     ecut=    40.00 Ry     beta= 0.50
     Davidson diagonalization with overlap
     ethr =  1.90E-05,  avg # of iterations =  3.0

     total cpu time spent up to now is       22.4 secs

     total energy              =     -89.82937289 Ry
     Harris-Foulkes estimate   =     -89.82949808 Ry
     estimated scf accuracy    <       0.00093859 Ry

     iteration #  7     ecut=    40.00 Ry     beta= 0.50
     Davidson diagonalization with overlap
     ethr =  2.93E-06,  avg # of iterations =  2.5

     total cpu time spent up to now is       23.1 secs

     total energy              =     -89.82936774 Ry
     Harris-Foulkes estimate   =     -89.82946717 Ry
     estimated scf accuracy    <       0.00036845 Ry

     iteration #  8     ecut=    40.00 Ry     beta= 0.50
     Davidson diagonalization with overlap
     ethr =  1.15E-06,  avg # of iterations =  2.4

     total cpu time spent up to now is       23.9 secs

     total energy              =     -89.82941188 Ry
     Harris-Foulkes estimate   =     -89.82941668 Ry
     estimated scf accuracy    <       0.00001124 Ry

     iteration #  9     ecut=    40.00 Ry     beta= 0.50
     Davidson diagonalization with overlap
     ethr =  3.51E-08,  avg # of iterations =  3.1

     total cpu time spent up to now is       24.8 secs

     total energy              =     -89.82941514 Ry
     Harris-Foulkes estimate   =     -89.82941776 Ry
     estimated scf accuracy    <       0.00000593 Ry

     iteration # 10     ecut=    40.00 Ry     beta= 0.50
     Davidson diagonalization with overlap
     ethr =  1.85E-08,  avg # of iterations =  2.7

     total cpu time spent up to now is       25.7 secs

     total energy              =     -89.82941629 Ry
     Harris-Foulkes estimate   =     -89.82941797 Ry
     estimated scf accuracy    <       0.00000734 Ry

     iteration # 11     ecut=    40.00 Ry     beta= 0.50
     Davidson diagonalization with overlap
     ethr =  1.85E-08,  avg # of iterations =  1.7

     total cpu time spent up to now is       26.3 secs

     End of self-consistent calculation

          k = 0.0000 0.0000 0.0000 (  2379 PWs)   bands (ev):

   -16.6935 -16.3273 -11.0322  -8.3080  -5.9909  -5.7796  -5.4348  -2.3416
    -1.4704  -0.8120   0.4906   0.9191   1.5310   1.9195   2.5573   5.8255
     5.8298   7.1823   8.4813   8.8688

          k = 0.0004 0.0002 0.7191 (  2360 PWs)   bands (ev):

   -16.1105 -15.7876 -10.4117  -7.8005  -5.5899  -5.1302  -4.7266  -2.5079
    -1.9352  -1.5307  -1.0691   0.1200   1.6243   2.1446   2.9585   3.1673
     5.5792   5.8921   5.9780   7.0143

          k =-0.0008-0.0004-1.4383 (  2370 PWs)   bands (ev):

   -15.3895 -15.1339  -9.6057  -7.1884  -5.0368  -4.9982  -4.2867  -3.8296
    -3.7421  -1.2875  -0.6218   0.1108   1.0537   2.1725   3.4077   3.4532
     3.5624   3.7897   4.3728   6.9083

          k = 0.0013-0.8112 0.0018 (  2358 PWs)   bands (ev):

   -16.6415 -16.3234 -11.0146  -8.4591  -6.5234  -5.8396  -5.6605  -2.0812
    -1.3096   0.2361   0.9675   1.0416   1.1261   1.9176   3.4195   5.7203
     5.8725   7.3155   8.3837   8.7663

          k = 0.0017-0.8110 0.7209 (  2359 PWs)   bands (ev):

   -16.0663 -15.7841 -10.3969  -7.9288  -5.8001  -5.4558  -4.9391  -2.3382
    -1.6560  -1.6070  -0.9184   1.1847   1.6663   1.9718   3.0280   4.0882
     5.2388   5.5707   5.7762   6.8808

          k = 0.0004-0.8116-1.4364 (  2358 PWs)   bands (ev):

   -15.3572 -15.1311  -9.5954  -7.2855  -4.9587  -4.8553  -4.8253  -3.9145
    -3.8255  -1.1346  -0.4892   0.2344   1.9992   2.6445   2.9336   2.9789
     3.1492   3.3699   5.0536   7.0535

          k =-0.4974 0.0003 0.0007 (  2380 PWs)   bands (ev):

   -16.6687 -16.3588 -10.9534  -8.5473  -5.8929  -5.6947  -5.2378  -2.6919
    -1.2352  -0.9141   0.0126   0.9406   1.8770   1.9189   2.8613   5.9277
     6.2348   6.4976   8.3220   8.9000

          k =-0.4970 0.0005 0.7198 (  2365 PWs)   bands (ev):

   -16.0888 -15.8145 -10.3453  -8.0061  -5.3415  -5.2293  -4.5381  -2.4432
    -2.2103  -1.8673  -0.8013   0.4241   0.9261   2.6240   2.6755   3.7855
     5.4243   5.8686   5.8869   7.2535

          k =-0.4982-0.0000-1.4376 (  2376 PWs)   bands (ev):

   -15.3727 -15.1539  -9.5550  -7.3439  -4.9434  -4.8673  -4.3599  -3.9457
    -3.5724  -1.6292  -0.3780   0.4079   0.9805   1.8647   2.8768   3.6878
     3.7383   3.7811   4.5114   7.2036

          k =-0.4961-0.8109 0.0025 (  2378 PWs)   bands (ev):

   -16.6255 -16.3428 -10.9920  -8.4955  -6.6223  -5.9035  -5.3282  -2.6885
    -0.8740   0.3084   0.7602   0.9776   1.6628   1.8996   3.0471   5.8796
     6.0536   6.9960   8.3832   8.7970

          k =-0.4957-0.8107 0.7216 (  2353 PWs)   bands (ev):

   -16.0518 -15.8012 -10.3757  -7.9690  -5.8867  -5.4754  -4.6556  -2.3115
    -2.2464  -1.6064  -0.5312   1.2757   1.4527   2.3526   3.1776   3.5683
     5.2325   5.8004   5.8443   7.0809

          k =-0.4969-0.8112-1.4357 (  2352 PWs)   bands (ev):

   -15.3452 -15.1447  -9.5754  -7.3299  -4.9459  -4.8927  -4.8275  -3.8732
    -3.6836  -1.6071  -0.1637   0.2474   1.9468   2.4921   2.8416   3.3174
     3.3805   3.5121   4.8095   6.6581

     the Fermi energy is     3.8196 ev

!    total energy              =     -89.82941670 Ry
     Harris-Foulkes estimate   =     -89.82941695 Ry
     estimated scf accuracy    <       0.00000028 Ry

     The total energy is the sum of the following terms:

     one-electron contribution =     -36.84409196 Ry
     hartree contribution      =      31.43616878 Ry
     xc contribution           =     -26.97206507 Ry
     ewald contribution        =     -57.45094979 Ry
     smearing contrib. (-TS)   =       0.00152134 Ry

     convergence has been achieved in  11 iterations

     Forces acting on atoms (cartesian axes, Ry/au):

     atom    1 type  1   force =    -0.01275847    0.00298218   -0.00025063
     atom    2 type  1   force =    -0.02913274   -0.01797171    0.00018997
     atom    3 type  1   force =    -0.07868336   -0.05177697    0.00000075
     atom    4 type  1   force =    -0.02035622   -0.03680793   -0.00013995
     atom    5 type  1   force =     0.01993262    0.03679129   -0.00001214
     atom    6 type  1   force =     0.02920269    0.01762343   -0.00004418
     atom    7 type  1   force =     0.07869168    0.05214917   -0.00010246
     atom    8 type  1   force =     0.01310380   -0.00298946    0.00035865

     Total force =     0.154892     Total SCF correction =     0.001301


     Computing stress (Cartesian axis) and pressure

          total   stress  (Ry/bohr**3)                   (kbar)     P=       39.33
  -0.00000044   0.00015275  -0.00000596           -0.06       22.47       -0.88
   0.00015275   0.00053351  -0.00000009           22.47       78.48       -0.01
  -0.00000596  -0.00000009   0.00026890           -0.88       -0.01       39.56


     number of scf cycles    =   3
     number of bfgs steps    =   2

     enthalpy old            =     -89.8251189780 Ry
     enthalpy new            =     -89.8293772833 Ry

     CASE: enthalpy_new < enthalpy_old

     new trust radius        =       0.0645128932 bohr
     new conv_thr            =       0.0000004258 Ry

     new unit-cell volume =    593.51156 a.u.^3 (    87.94934 Ang^3 )
     density =      1.81254 g/cm^3

CELL_PARAMETERS (bohr)
  13.979333082   0.065983002  -0.010577485
   0.028038104   8.686007300  -0.002086950
   0.006007144   0.011067768   4.887969880

ATOMIC_POSITIONS (crystal)
C             0.3043669564        0.8277932455        0.5037787608
C             0.6618294596        0.5341357606        0.5016057675
C             0.1149538322       -0.1218632988        0.5032823821
C             0.8517360693        0.4897443967        0.5027434097
C             0.2050096676        0.1482030565        0.5025314721
C             0.3949861482        0.1044085467        0.5028367512
C             0.9421462803        0.7594506007        0.5021501452
C             0.7527885865        0.8104336921        0.5011733114



     Writing output data file ./pp.save/
     NEW-OLD atomic charge density approx. for the potential
     extrapolated charge   32.73440, renormalised to   32.00000

     total cpu time spent up to now is       26.4 secs

     Self-consistent Calculation

     iteration #  1     ecut=    40.00 Ry     beta= 0.50
     Davidson diagonalization with overlap
     ethr =  1.00E-06,  avg # of iterations =  8.6

     total cpu time spent up to now is       29.0 secs

     total energy              =     -89.75984751 Ry
     Harris-Foulkes estimate   =     -89.21770050 Ry
     estimated scf accuracy    <       0.08703308 Ry

     iteration #  2     ecut=    40.00 Ry     beta= 0.50
     Davidson diagonalization with overlap
     ethr =  2.72E-04,  avg # of iterations =  3.9

     total cpu time spent up to now is       30.4 secs

     total energy              =     -89.79258322 Ry
     Harris-Foulkes estimate   =     -89.93710777 Ry
     estimated scf accuracy    <       0.63765868 Ry

     iteration #  3     ecut=    40.00 Ry     beta= 0.50
     Davidson diagonalization with overlap
     ethr =  2.72E-04,  avg # of iterations =  3.1

     total cpu time spent up to now is       31.6 secs

     total energy              =     -89.83760334 Ry
     Harris-Foulkes estimate   =     -89.84409023 Ry
     estimated scf accuracy    <       0.03286868 Ry

     iteration #  4     ecut=    40.00 Ry     beta= 0.50
     Davidson diagonalization with overlap
     ethr =  1.03E-04,  avg # of iterations =  1.1

     total cpu time spent up to now is       32.2 secs

     total energy              =     -89.83775537 Ry
     Harris-Foulkes estimate   =     -89.83948272 Ry
     estimated scf accuracy    <       0.01229815 Ry

     iteration #  5     ecut=    40.00 Ry     beta= 0.50
     Davidson diagonalization with overlap
     ethr =  3.84E-05,  avg # of iterations =  1.0

     total cpu time spent up to now is       32.9 secs

     total energy              =     -89.83647813 Ry
     Harris-Foulkes estimate   =     -89.83815569 Ry
     estimated scf accuracy    <       0.00570450 Ry

     iteration #  6     ecut=    40.00 Ry     beta= 0.50
     Davidson diagonalization with overlap
     ethr =  1.78E-05,  avg # of iterations =  2.8

     total cpu time spent up to now is       34.0 secs

     total energy              =     -89.83734253 Ry
     Harris-Foulkes estimate   =     -89.83741673 Ry
     estimated scf accuracy    <       0.00024705 Ry

     iteration #  7     ecut=    40.00 Ry     beta= 0.50
     Davidson diagonalization with overlap
     ethr =  7.72E-07,  avg # of iterations =  4.2

     total cpu time spent up to now is       35.5 secs

     total energy              =     -89.83738189 Ry
     Harris-Foulkes estimate   =     -89.83745897 Ry
     estimated scf accuracy    <       0.00046770 Ry

     iteration #  8     ecut=    40.00 Ry     beta= 0.50
     Davidson diagonalization with overlap
     ethr =  7.72E-07,  avg # of iterations =  1.0

     total cpu time spent up to now is       36.2 secs

     total energy              =     -89.83740620 Ry
     Harris-Foulkes estimate   =     -89.83741809 Ry
     estimated scf accuracy    <       0.00003039 Ry

     iteration #  9     ecut=    40.00 Ry     beta= 0.50
     Davidson diagonalization with overlap
     ethr =  9.50E-08,  avg # of iterations =  3.2

     total cpu time spent up to now is       37.5 secs

     total energy              =     -89.83740829 Ry
     Harris-Foulkes estimate   =     -89.83741856 Ry
     estimated scf accuracy    <       0.00002922 Ry

     iteration # 10     ecut=    40.00 Ry     beta= 0.50
     Davidson diagonalization with overlap
     ethr =  9.13E-08,  avg # of iterations =  2.7

     total cpu time spent up to now is       38.5 secs

     total energy              =     -89.83741368 Ry
     Harris-Foulkes estimate   =     -89.83741657 Ry
     estimated scf accuracy    <       0.00001148 Ry

     iteration # 11     ecut=    40.00 Ry     beta= 0.50
     Davidson diagonalization with overlap
     ethr =  3.59E-08,  avg # of iterations =  1.7

     total cpu time spent up to now is       39.4 secs

     End of self-consistent calculation

          k = 0.0000 0.0000 0.0000 (  2379 PWs)   bands (ev):

   -16.5857 -16.1944 -11.1824  -8.3435  -6.1293  -5.8887  -5.5977  -2.4627
    -1.5179  -0.9406   0.4681   0.7367   1.3668   1.7897   2.3020   5.4594
     5.5394   6.9714   8.2139   8.4763

          k = 0.0005 0.0002 0.7115 (  2360 PWs)   bands (ev):

   -16.0233 -15.6758 -10.5962  -7.8563  -5.7545  -5.2668  -4.9036  -2.5902
    -2.0514  -1.5528  -1.1286  -0.0359   1.5340   1.9523   2.7009   2.8973
     5.4543   5.6152   5.6454   6.7090

          k =-0.0011-0.0003-1.4230 (  2370 PWs)   bands (ev):

   -15.3315 -15.0512  -9.8454  -7.2726  -5.2544  -4.9759  -4.4657  -3.9553
    -3.7695  -1.4448  -0.7007  -0.0175   0.8533   2.0539   3.1839   3.2766
     3.3568   3.6813   4.0320   6.6259

          k = 0.0038-0.8008 0.0018 (  2358 PWs)   bands (ev):

   -16.5338 -16.1917 -11.1747  -8.5091  -6.5825  -5.9927  -5.7706  -2.1843
    -1.3197   0.1213   0.7838   0.8417   0.9406   1.7861   3.1959   5.4261
     5.4980   7.0407   8.0769   8.4381

          k = 0.0043-0.8006 0.7133 (  2359 PWs)   bands (ev):

   -15.9790 -15.6732 -10.5902  -7.9966  -5.8926  -5.6387  -5.0644  -2.4155
    -1.7774  -1.6216  -0.9490   1.0224   1.4554   1.7410   2.7791   3.8239
     4.9497   5.4311   5.5351   6.5600

          k = 0.0027-0.8011-1.4212 (  2358 PWs)   bands (ev):

   -15.2986 -15.0490  -9.8422  -7.3784  -5.1872  -4.9726  -4.8366  -4.0845
    -3.7702  -1.2777  -0.5446   0.0894   1.7987   2.3991   2.6700   2.6887
     3.1886   3.2217   4.7450   6.6864

          k =-0.4976 0.0016 0.0006 (  2380 PWs)   bands (ev):

   -16.5601 -16.2275 -11.1090  -8.5655  -6.0362  -5.9136  -5.3055  -2.7911
    -1.3248  -0.9513  -0.0872   0.7584   1.7194   1.7445   2.6135   5.5537
     5.9561   6.3526   8.1079   8.5116

          k =-0.4970 0.0018 0.7121 (  2365 PWs)   bands (ev):

   -16.0009 -15.7041 -10.5346  -8.0480  -5.5540  -5.3967  -4.6506  -2.5217
    -2.3278  -1.8699  -0.8941   0.3212   0.7748   2.4052   2.4487   3.4917
     5.3671   5.4937   5.6369   6.9190

          k =-0.4986 0.0013-1.4224 (  2376 PWs)   bands (ev):

   -15.3139 -15.0726  -9.7987  -7.4196  -5.1074  -4.9205  -4.5640  -3.8909
    -3.7417  -1.7691  -0.4829   0.2669   0.8467   1.6641   2.8731   3.4893
     3.4927   3.5004   4.1862   6.9071

          k =-0.4938-0.7992 0.0024 (  2378 PWs)   bands (ev):

   -16.5173 -16.2121 -11.1553  -8.5171  -6.7257  -6.1426  -5.3229  -2.7378
    -0.9624   0.1208   0.6238   0.7945   1.4964   1.7667   2.8315   5.5009
     5.7742   6.7248   8.1851   8.3538

          k =-0.4933-0.7990 0.7139 (  2353 PWs)   bands (ev):

   -15.9640 -15.6912 -10.5720  -8.0136  -6.0178  -5.7159  -4.6950  -2.3890
    -2.3084  -1.6437  -0.6262   1.1185   1.2265   2.1228   2.9236   3.3463
     5.0143   5.5925   5.6178   6.7479

          k =-0.4949-0.7995-1.4206 (  2352 PWs)   bands (ev):

   -15.2862 -15.0635  -9.8250  -7.4064  -5.2074  -5.0700  -4.8078  -3.8209
    -3.7945  -1.7154  -0.2679   0.0919   1.6971   2.2816   2.7732   3.1068
     3.1518   3.3852   4.5013   6.3908

     the Fermi energy is     3.5864 ev

!    total energy              =     -89.83741479 Ry
     Harris-Foulkes estimate   =     -89.83741493 Ry
     estimated scf accuracy    <       0.00000016 Ry

     The total energy is the sum of the following terms:

     one-electron contribution =     -36.80549765 Ry
     hartree contribution      =      31.19998543 Ry
     xc contribution           =     -26.83925120 Ry
     ewald contribution        =     -57.39419091 Ry
     smearing contrib. (-TS)   =       0.00153954 Ry

     convergence has been achieved in  11 iterations

     Forces acting on atoms (cartesian axes, Ry/au):

     atom    1 type  1   force =    -0.00936561    0.02768205   -0.00020915
     atom    2 type  1   force =    -0.00262920    0.00208210    0.00013268
     atom    3 type  1   force =    -0.02832010   -0.00362121   -0.00014859
     atom    4 type  1   force =    -0.00954186    0.01350695   -0.00014730
     atom    5 type  1   force =     0.00963225   -0.01354157    0.00004056
     atom    6 type  1   force =     0.00265593   -0.00222964    0.00002201
     atom    7 type  1   force =     0.02845547    0.00381851    0.00004386
     atom    8 type  1   force =     0.00911312   -0.02769718    0.00026593

     Total force =     0.062584     Total SCF correction =     0.001099


     Computing stress (Cartesian axis) and pressure

          total   stress  (Ry/bohr**3)                   (kbar)     P=       -5.04
  -0.00030468  -0.00008776  -0.00000379          -44.82      -12.91       -0.56
  -0.00008776  -0.00004242   0.00000082          -12.91       -6.24        0.12
  -0.00000379   0.00000082   0.00024434           -0.56        0.12       35.94


     number of scf cycles    =   4
     number of bfgs steps    =   3

     enthalpy old            =     -89.8293772833 Ry
     enthalpy new            =     -89.8373744446 Ry

     CASE: enthalpy_new < enthalpy_old

     new trust radius        =       0.0746856662 bohr
     new conv_thr            =       0.0000002846 Ry

     new unit-cell volume =    600.60267 a.u.^3 (    89.00013 Ang^3 )
     density =      1.79114 g/cm^3

CELL_PARAMETERS (bohr)
  13.839902943   0.047988103  -0.013981822
   0.011312472   8.744226459  -0.001850566
   0.004774718   0.011321930   4.962884130

ATOMIC_POSITIONS (crystal)
C             0.3026518633        0.8326395494        0.5036635290
C             0.6608729352        0.5344778780        0.5016793494
C             0.1132961674       -0.1224492800        0.5032659654
C             0.8506480907        0.4896605852        0.5026724912
C             0.2060859392        0.1483083481        0.5025467452
C             0.3959543450        0.1040109015        0.5028395185
C             0.9438087788        0.7600831861        0.5021151734
C             0.7544988804        0.8055748316        0.5013192281



     Writing output data file ./pp.save/
     NEW-OLD atomic charge density approx. for the potential
     extrapolated charge   32.37781, renormalised to   32.00000

     total cpu time spent up to now is       39.5 secs

     Self-consistent Calculation

     iteration #  1     ecut=    40.00 Ry     beta= 0.50
     Davidson diagonalization with overlap
     ethr =  1.00E-06,  avg # of iterations =  8.2

     total cpu time spent up to now is       42.9 secs

     total energy              =     -89.81873741 Ry
     Harris-Foulkes estimate   =     -89.50372162 Ry
     estimated scf accuracy    <       0.02908113 Ry

     iteration #  2     ecut=    40.00 Ry     beta= 0.50
     Davidson diagonalization with overlap
     ethr =  9.09E-05,  avg # of iterations =  4.2

     total cpu time spent up to now is       44.8 secs

     total energy              =     -89.82450323 Ry
     Harris-Foulkes estimate   =     -89.87883133 Ry
     estimated scf accuracy    <       0.25343843 Ry

     iteration #  3     ecut=    40.00 Ry     beta= 0.50
     Davidson diagonalization with overlap
     ethr =  9.09E-05,  avg # of iterations =  3.2

     total cpu time spent up to now is       46.4 secs

     total energy              =     -89.84215603 Ry
     Harris-Foulkes estimate   =     -89.84376565 Ry
     estimated scf accuracy    <       0.00942635 Ry

     iteration #  4     ecut=    40.00 Ry     beta= 0.50
     Davidson diagonalization with overlap
     ethr =  2.95E-05,  avg # of iterations =  1.0

     total cpu time spent up to now is       47.2 secs

     total energy              =     -89.84188509 Ry
     Harris-Foulkes estimate   =     -89.84255720 Ry
     estimated scf accuracy    <       0.00378715 Ry

     iteration #  5     ecut=    40.00 Ry     beta= 0.50
     Davidson diagonalization with overlap
     ethr =  1.18E-05,  avg # of iterations =  1.0

     total cpu time spent up to now is       48.0 secs

     total energy              =     -89.84156045 Ry
     Harris-Foulkes estimate   =     -89.84205296 Ry
     estimated scf accuracy    <       0.00116727 Ry

     iteration #  6     ecut=    40.00 Ry     beta= 0.50
     Davidson diagonalization with overlap
     ethr =  3.65E-06,  avg # of iterations =  3.6

     total cpu time spent up to now is       49.8 secs

     total energy              =     -89.84195187 Ry
     Harris-Foulkes estimate   =     -89.84202326 Ry
     estimated scf accuracy    <       0.00059657 Ry

     iteration #  7     ecut=    40.00 Ry     beta= 0.50
     Davidson diagonalization with overlap
     ethr =  1.86E-06,  avg # of iterations =  1.3

     total cpu time spent up to now is       50.8 secs

     total energy              =     -89.84193347 Ry
     Harris-Foulkes estimate   =     -89.84197783 Ry
     estimated scf accuracy    <       0.00032391 Ry

     iteration #  8     ecut=    40.00 Ry     beta= 0.50
     Davidson diagonalization with overlap
     ethr =  1.01E-06,  avg # of iterations =  1.2

     total cpu time spent up to now is       51.7 secs

     total energy              =     -89.84191653 Ry
     Harris-Foulkes estimate   =     -89.84194502 Ry
     estimated scf accuracy    <       0.00010139 Ry

     iteration #  9     ecut=    40.00 Ry     beta= 0.50
     Davidson diagonalization with overlap
     ethr =  3.17E-07,  avg # of iterations =  2.8

     total cpu time spent up to now is       53.2 secs

     total energy              =     -89.84193315 Ry
     Harris-Foulkes estimate   =     -89.84193424 Ry
     estimated scf accuracy    <       0.00000371 Ry

     iteration # 10     ecut=    40.00 Ry     beta= 0.50
     Davidson diagonalization with overlap
     ethr =  1.16E-08,  avg # of iterations =  3.1

     total cpu time spent up to now is       54.9 secs

     total energy              =     -89.84193420 Ry
     Harris-Foulkes estimate   =     -89.84193441 Ry
     estimated scf accuracy    <       0.00000071 Ry

     iteration # 11     ecut=    40.00 Ry     beta= 0.50
     Davidson diagonalization with overlap
     ethr =  2.23E-09,  avg # of iterations =  2.1

     total cpu time spent up to now is       56.1 secs

     End of self-consistent calculation

          k = 0.0000 0.0000 0.0000 (  2379 PWs)   bands (ev):

   -16.8500 -16.4545 -11.5228  -8.5552  -6.4376  -5.9769  -5.6424  -2.6205
    -1.5916  -1.0689   0.2020   0.4115   1.3274   1.3575   2.3177   4.9368
     5.5056   7.1072   7.8808   8.1910

          k = 0.0007 0.0001 0.7008 (  2360 PWs)   bands (ev):

   -16.3391 -15.9864 -10.9942  -8.1174  -6.1048  -5.4050  -4.9933  -2.9019
    -2.2433  -1.7780  -1.2351  -0.2202   1.4061   1.8628   2.4256   2.8753
     5.3394   5.5017   5.5817   6.5961

          k =-0.0014-0.0003-1.4015 (  2370 PWs)   bands (ev):

   -15.7222 -15.4327 -10.3320  -7.6029  -5.6766  -5.1283  -4.6841  -4.1244
    -3.8626  -1.6897  -0.8494  -0.1617   0.6312   1.8947   3.0622   3.2497
     3.3528   3.7829   3.9383   6.6103

          k = 0.0028-0.7955 0.0018 (  2358 PWs)   bands (ev):

   -16.8029 -16.4539 -11.5190  -8.7162  -6.6303  -6.3137  -5.7797  -2.3592
    -1.3770   0.0217   0.2467   0.7632   0.8076   1.3209   3.2346   4.9739
     5.3376   7.0826   7.7277   8.1793

          k = 0.0035-0.7953 0.7026 (  2359 PWs)   bands (ev):

   -16.2988 -15.9856 -10.9915  -8.2538  -6.0017  -5.9931  -5.1208  -2.7389
    -1.9980  -1.8419  -1.0436   0.9143   1.2262   1.6088   2.4890   3.8090
     4.7827   5.3867   5.4376   6.4239

          k = 0.0013-0.7958-1.3997 (  2358 PWs)   bands (ev):

   -15.6919 -15.4318 -10.3312  -7.7068  -5.6145  -5.1626  -4.9970  -4.2269
    -3.8707  -1.5330  -0.6834  -0.0615   1.5823   2.1470   2.5598   2.6242
     3.2553   3.2908   4.6767   6.5246

          k =-0.5026 0.0007 0.0005 (  2380 PWs)   bands (ev):

   -16.8250 -16.4869 -11.4582  -8.7580  -6.2333  -6.1408  -5.3350  -2.9487
    -1.4108  -1.0325  -0.1659   0.2241   1.2798   1.7166   2.5848   5.0299
     5.9390   6.5041   7.8085   8.2351

          k =-0.5019 0.0008 0.7012 (  2365 PWs)   bands (ev):

   -16.3170 -16.0143 -10.9400  -8.2931  -5.9198  -5.5494  -4.7182  -2.8324
    -2.5228  -2.0741  -1.0211   0.1540   0.6350   2.2154   2.3578   3.3556
     5.2371   5.4313   5.5546   6.8086

          k =-0.5040 0.0004-1.4010 (  2376 PWs)   bands (ev):

   -15.7046 -15.4541 -10.2906  -7.7401  -5.5385  -5.0730  -4.7946  -3.9874
    -3.8866  -2.0130  -0.6484   0.1150   0.6637   1.4733   2.9283   3.3711
     3.4798   3.5145   4.0754   6.9136

          k =-0.4998-0.7948 0.0023 (  2378 PWs)   bands (ev):

   -16.7869 -16.4736 -11.5029  -8.7128  -6.7905  -6.4320  -5.3354  -2.8763
    -1.0848  -0.0638   0.2574   0.5604   1.3010   1.4181   2.8928   4.9744
     5.7107   6.7565   7.8453   8.1526

          k =-0.4991-0.7947 0.7031 (  2353 PWs)   bands (ev):

   -16.2843 -16.0031 -10.9763  -8.2606  -6.1336  -6.0678  -4.7366  -2.7139
    -2.4847  -1.8817  -0.7760   0.9823   0.9959   1.9977   2.6226   3.3651
     4.8771   5.5375   5.5386   6.6229

          k =-0.5012-0.7951-1.3992 (  2352 PWs)   bands (ev):

   -15.6796 -15.4461 -10.3167  -7.7260  -5.6359  -5.2733  -4.9685  -3.9215
    -3.9120  -1.9498  -0.4492  -0.0655   1.4373   2.0946   2.7740   2.9529
     3.2107   3.4385   4.4373   6.3848

     the Fermi energy is     3.5641 ev

!    total energy              =     -89.84193427 Ry
     Harris-Foulkes estimate   =     -89.84193431 Ry
     estimated scf accuracy    <       0.00000006 Ry

     The total energy is the sum of the following terms:

     one-electron contribution =     -38.82853779 Ry
     hartree contribution      =      32.00958565 Ry
     xc contribution           =     -26.90912109 Ry
     ewald contribution        =     -56.11530439 Ry
     smearing contrib. (-TS)   =       0.00144334 Ry

     convergence has been achieved in  11 iterations

     Forces acting on atoms (cartesian axes, Ry/au):

     atom    1 type  1   force =     0.00362595    0.01014236   -0.00005144
     atom    2 type  1   force =    -0.02744892   -0.00650892    0.00010203
     atom    3 type  1   force =     0.01356581    0.02186850   -0.00017430
     atom    4 type  1   force =     0.01337046    0.01190894   -0.00005391
     atom    5 type  1   force =    -0.01299051   -0.01195030   -0.00000121
     atom    6 type  1   force =     0.02736798    0.00651060    0.00000334
     atom    7 type  1   force =    -0.01356591   -0.02185094    0.00009542
     atom    8 type  1   force =    -0.00392487   -0.01012023    0.00008007

     Total force =     0.061457     Total SCF correction =     0.000360


     Computing stress (Cartesian axis) and pressure

          total   stress  (Ry/bohr**3)                   (kbar)     P=       24.07
   0.00025790  -0.00002589  -0.00000197           37.94       -3.81       -0.29
  -0.00002589   0.00007621   0.00000027           -3.81       11.21        0.04
  -0.00000197   0.00000027   0.00015680           -0.29        0.04       23.07


     number of scf cycles    =   5
     number of bfgs steps    =   4

     enthalpy old            =     -89.8373744446 Ry
     enthalpy new            =     -89.8418934431 Ry

     CASE: enthalpy_new < enthalpy_old

     new trust radius        =       0.0986673047 bohr
     new conv_thr            =       0.0000002745 Ry

     new unit-cell volume =    619.04390 a.u.^3 (    91.73284 Ang^3 )
     density =      1.73778 g/cm^3

CELL_PARAMETERS (bohr)
  13.839177802   0.015817592  -0.018183544
  -0.012022210   8.835295816  -0.001593486
   0.003384132   0.011636760   5.062777328

ATOMIC_POSITIONS (crystal)
C             0.3017694099        0.8380955728        0.5035331524
C             0.6579007979        0.5345073391        0.5017804922
C             0.1125681976       -0.1203926306        0.5032234534
C             0.8508233161        0.4899355416        0.5025909376
C             0.2059252144        0.1480564110        0.5025597033
C             0.3989298671        0.1039228397        0.5028407540
C             0.9445425901        0.7580714158        0.5020887293
C             0.7553576069        0.8001095105        0.5014847775



     Writing output data file ./pp.save/
     NEW-OLD atomic charge density approx. for the potential
     extrapolated charge   32.95327, renormalised to   32.00000

     total cpu time spent up to now is       56.2 secs

     Self-consistent Calculation

     iteration #  1     ecut=    40.00 Ry     beta= 0.50
     Davidson diagonalization with overlap
     ethr =  1.00E-06,  avg # of iterations =  8.3

     total cpu time spent up to now is       60.6 secs

     total energy              =     -89.72471732 Ry
     Harris-Foulkes estimate   =     -88.96180341 Ry
     estimated scf accuracy    <       0.12986118 Ry

     iteration #  2     ecut=    40.00 Ry     beta= 0.50
     Davidson diagonalization with overlap
     ethr =  4.06E-04,  avg # of iterations =  4.4

     total cpu time spent up to now is       63.1 secs

     total energy              =     -89.76337466 Ry
     Harris-Foulkes estimate   =     -90.01197248 Ry
     estimated scf accuracy    <       1.16698434 Ry

     iteration #  3     ecut=    40.00 Ry     beta= 0.50
     Davidson diagonalization with overlap
     ethr =  4.06E-04,  avg # of iterations =  3.2

     total cpu time spent up to now is       65.1 secs

     total energy              =     -89.84838908 Ry
     Harris-Foulkes estimate   =     -89.85655281 Ry
     estimated scf accuracy    <       0.04961189 Ry

     iteration #  4     ecut=    40.00 Ry     beta= 0.50
     Davidson diagonalization with overlap
     ethr =  1.55E-04,  avg # of iterations =  1.0

     total cpu time spent up to now is       66.2 secs

     total energy              =     -89.84812434 Ry
     Harris-Foulkes estimate   =     -89.85030077 Ry
     estimated scf accuracy    <       0.02233856 Ry

     iteration #  5     ecut=    40.00 Ry     beta= 0.50
     Davidson diagonalization with overlap
     ethr =  6.98E-05,  avg # of iterations =  1.0

     total cpu time spent up to now is       67.2 secs

     total energy              =     -89.84507315 Ry
     Harris-Foulkes estimate   =     -89.84854726 Ry
     estimated scf accuracy    <       0.01328632 Ry

     iteration #  6     ecut=    40.00 Ry     beta= 0.50
     Davidson diagonalization with overlap
     ethr =  4.15E-05,  avg # of iterations =  2.5

     total cpu time spent up to now is       68.8 secs

     total energy              =     -89.84620252 Ry
     Harris-Foulkes estimate   =     -89.84652759 Ry
     estimated scf accuracy    <       0.00120613 Ry

     iteration #  7     ecut=    40.00 Ry     beta= 0.50
     Davidson diagonalization with overlap
     ethr =  3.77E-06,  avg # of iterations =  3.8

     total cpu time spent up to now is       71.1 secs

     total energy              =     -89.84647285 Ry
     Harris-Foulkes estimate   =     -89.84652658 Ry
     estimated scf accuracy    <       0.00030484 Ry

     iteration #  8     ecut=    40.00 Ry     beta= 0.50
     Davidson diagonalization with overlap
     ethr =  9.53E-07,  avg # of iterations =  1.2

     total cpu time spent up to now is       72.3 secs

     total energy              =     -89.84650105 Ry
     Harris-Foulkes estimate   =     -89.84650344 Ry
     estimated scf accuracy    <       0.00001570 Ry

     iteration #  9     ecut=    40.00 Ry     beta= 0.50
     Davidson diagonalization with overlap
     ethr =  4.91E-08,  avg # of iterations =  3.3

     total cpu time spent up to now is       74.5 secs

     total energy              =     -89.84649440 Ry
     Harris-Foulkes estimate   =     -89.84651100 Ry
     estimated scf accuracy    <       0.00006111 Ry

     iteration # 10     ecut=    40.00 Ry     beta= 0.50
     Davidson diagonalization with overlap
     ethr =  4.91E-08,  avg # of iterations =  3.2

     total cpu time spent up to now is       76.6 secs

     total energy              =     -89.84650137 Ry
     Harris-Foulkes estimate   =     -89.84650152 Ry
     estimated scf accuracy    <       0.00000044 Ry

     iteration # 11     ecut=    40.00 Ry     beta= 0.50
     Davidson diagonalization with overlap
     ethr =  1.37E-09,  avg # of iterations =  3.0

     total cpu time spent up to now is       78.8 secs

     End of self-consistent calculation

          k = 0.0000 0.0000 0.0000 (  2379 PWs)   bands (ev):

   -17.0506 -16.6555 -11.7363  -8.8139  -6.7398  -6.1745  -5.7846  -2.7324
    -1.7354  -1.2366  -0.3471   0.2294   0.8024   1.0984   2.1096   4.4377
     5.3207   6.9993   7.4288   7.7009

          k = 0.0009 0.0001 0.6869 (  2360 PWs)   bands (ev):

   -16.5948 -16.2399 -11.2635  -8.4259  -6.4415  -5.6580  -5.1941  -3.1933
    -2.3962  -2.0316  -1.4192  -0.4567   1.1362   1.5735   2.1102   2.6276
     5.1174   5.2247   5.2680   6.2681

          k =-0.0018-0.0003-1.3739 (  2370 PWs)   bands (ev):

   -16.0549 -15.7570 -10.6847  -7.9778  -6.0652  -5.2517  -5.0211  -4.4219
    -3.9706  -1.8911  -1.0761  -0.2812   0.3374   1.5901   2.6604   3.1598
     3.2241   3.5885   3.5953   6.3625

          k = 0.0009-0.7873 0.0018 (  2358 PWs)   bands (ev):

   -17.0082 -16.6571 -11.7298  -8.9594  -6.7869  -6.6049  -5.9038  -2.5162
    -1.5605  -0.3049  -0.2082   0.5477   0.5982   0.7929   3.0081   4.4801
     5.1376   6.9359   7.2745   7.6856

          k = 0.0018-0.7871 0.6887 (  2359 PWs)   bands (ev):

   -16.5584 -16.2411 -11.2586  -8.5498  -6.3317  -6.2076  -5.2994  -3.0469
    -2.2025  -2.0874  -1.2590   0.6161   0.9735   1.3270   2.1799   3.5394
     4.5617   5.0494   5.1705   6.1096

          k =-0.0009-0.7875-1.3721 (  2358 PWs)   bands (ev):

   -16.0270 -15.7577 -10.6819  -8.0736  -5.9948  -5.4703  -5.1282  -4.5037
    -3.9859  -1.7631  -0.9369  -0.1706   1.2215   1.8181   2.1988   2.5522
     3.0828   3.1511   4.3166   6.2296

          k =-0.5026-0.0007 0.0003 (  2380 PWs)   bands (ev):

   -17.0268 -16.6865 -11.6721  -9.0199  -6.5048  -6.3229  -5.5310  -3.0742
    -1.5246  -1.2035  -0.3551  -0.3251   0.7541   1.4617   2.3708   4.5386
     5.7791   6.3688   7.3167   7.7458

          k =-0.5017-0.0006 0.6873 (  2365 PWs)   bands (ev):

   -16.5737 -16.2667 -11.2092  -8.6052  -6.2377  -5.7890  -4.9583  -3.1276
    -2.6854  -2.3098  -1.1846  -0.1285   0.3931   1.9481   2.0597   3.0750
     4.9320   5.1575   5.2835   6.5328

          k =-0.5044-0.0009-1.3735 (  2376 PWs)   bands (ev):

   -16.0378 -15.7780 -10.6422  -8.1206  -5.9128  -5.1972  -5.1234  -4.2105
    -4.0953  -2.2249  -0.8539   0.0067   0.3634   1.1624   2.7524   2.9691
     3.3615   3.3858   3.7328   6.6826

          k =-0.5017-0.7879 0.0021 (  2378 PWs)   bands (ev):

   -16.9932 -16.6756 -11.7139  -8.9655  -6.9299  -6.6708  -5.5329  -3.0218
    -1.2716  -0.2944  -0.2752   0.3383   0.7734   1.1915   2.6776   4.4800
     5.5457   6.5592   7.4051   7.5923

          k =-0.5008-0.7878 0.6891 (  2353 PWs)   bands (ev):

   -16.5448 -16.2576 -11.2434  -8.5639  -6.3638  -6.3337  -4.9701  -3.0227
    -2.6693  -2.1350  -0.9930   0.6779   0.7419   1.7340   2.2926   3.1095
     4.6565   5.2007   5.2692   6.3598

          k =-0.5035-0.7882-1.3717 (  2352 PWs)   bands (ev):

   -16.0154 -15.7714 -10.6672  -8.0973  -5.9987  -5.5718  -5.1008  -4.2245
    -4.0351  -2.1779  -0.6963  -0.1758   1.1073   1.7372   2.5925   2.6645
     3.0649   3.3362   4.0782   6.1284

     the Fermi energy is     3.3832 ev

!    total energy              =     -89.84650134 Ry
     Harris-Foulkes estimate   =     -89.84650153 Ry
     estimated scf accuracy    <       0.00000023 Ry

     The total energy is the sum of the following terms:

     one-electron contribution =     -40.60490535 Ry
     hartree contribution      =      32.55965983 Ry
     xc contribution           =     -26.85610547 Ry
     ewald contribution        =     -54.94632237 Ry
     smearing contrib. (-TS)   =       0.00117203 Ry

     convergence has been achieved in  11 iterations

     Forces acting on atoms (cartesian axes, Ry/au):

     atom    1 type  1   force =     0.00769034    0.01195318    0.00003540
     atom    2 type  1   force =    -0.00455305   -0.00250240    0.00002781
     atom    3 type  1   force =     0.01967476    0.02104291   -0.00023335
     atom    4 type  1   force =    -0.00166686    0.01317189    0.00002221
     atom    5 type  1   force =     0.00201987   -0.01309151   -0.00005582
     atom    6 type  1   force =     0.00455147    0.00263039    0.00005611
     atom    7 type  1   force =    -0.01990616   -0.02110399    0.00017172
     atom    8 type  1   force =    -0.00781037   -0.01210048   -0.00002408

     Total force =     0.049874     Total SCF correction =     0.001236


     Computing stress (Cartesian axis) and pressure

          total   stress  (Ry/bohr**3)                   (kbar)     P=       12.34
   0.00014031  -0.00001987  -0.00000065           20.64       -2.92       -0.10
  -0.00001987   0.00003885   0.00000000           -2.92        5.72        0.00
  -0.00000065   0.00000000   0.00007249           -0.10        0.00       10.66


     number of scf cycles    =   6
     number of bfgs steps    =   5

     enthalpy old            =     -89.8418934431 Ry
     enthalpy new            =     -89.8464592573 Ry

     CASE: enthalpy_new < enthalpy_old

     new trust radius        =       0.1244205509 bohr
     new conv_thr            =       0.0000002110 Ry

     new unit-cell volume =    645.55616 a.u.^3 (    95.66155 Ang^3 )
     density =      1.66641 g/cm^3

CELL_PARAMETERS (bohr)
  13.872313065  -0.025091325  -0.023358175
  -0.041370542   8.967579685  -0.001355223
   0.001703945   0.012006557   5.189351985

ATOMIC_POSITIONS (crystal)
C             0.3016860132        0.8461555805        0.5033944970
C             0.6551047149        0.5344205219        0.5018992114
C             0.1122893631       -0.1164416230        0.5031030387
C             0.8498389254        0.4911891488        0.5025135968
C             0.2069473486        0.1468527865        0.5025460797
C             0.4017330073        0.1039617781        0.5028662705
C             0.9447990103        0.7541656537        0.5021121635
C             0.7554186173        0.7920021535        0.5016671424



     Writing output data file ./pp.save/
     NEW-OLD atomic charge density approx. for the potential
     extrapolated charge   33.31419, renormalised to   32.00000

     total cpu time spent up to now is       78.9 secs

     Self-consistent Calculation

     iteration #  1     ecut=    40.00 Ry     beta= 0.50
     Davidson diagonalization with overlap
     ethr =  1.00E-06,  avg # of iterations =  8.4

     total cpu time spent up to now is       84.5 secs

     total energy              =     -89.61619036 Ry
     Harris-Foulkes estimate   =     -88.55233693 Ry
     estimated scf accuracy    <       0.25132641 Ry

     iteration #  2     ecut=    40.00 Ry     beta= 0.50
     Davidson diagonalization with overlap
     ethr =  7.85E-04,  avg # of iterations =  4.3

     total cpu time spent up to now is       87.5 secs

     total energy              =     -89.66062452 Ry
     Harris-Foulkes estimate   =     -90.19187069 Ry
     estimated scf accuracy    <       2.61638779 Ry

     iteration #  3     ecut=    40.00 Ry     beta= 0.50
     Davidson diagonalization with overlap
     ethr =  7.85E-04,  avg # of iterations =  3.1

     total cpu time spent up to now is       89.9 secs

     total energy              =     -89.85480260 Ry
     Harris-Foulkes estimate   =     -89.86648326 Ry
     estimated scf accuracy    <       0.07056270 Ry

     iteration #  4     ecut=    40.00 Ry     beta= 0.50
     Davidson diagonalization with overlap
     ethr =  2.21E-04,  avg # of iterations =  1.0

     total cpu time spent up to now is       91.2 secs

     total energy              =     -89.85338078 Ry
     Harris-Foulkes estimate   =     -89.85710331 Ry
     estimated scf accuracy    <       0.04026211 Ry

     iteration #  5     ecut=    40.00 Ry     beta= 0.50
     Davidson diagonalization with overlap
     ethr =  1.26E-04,  avg # of iterations =  1.0

     total cpu time spent up to now is       92.5 secs

     total energy              =     -89.84630261 Ry
     Harris-Foulkes estimate   =     -89.85404320 Ry
     estimated scf accuracy    <       0.02484327 Ry

     iteration #  6     ecut=    40.00 Ry     beta= 0.50
     Davidson diagonalization with overlap
     ethr =  7.76E-05,  avg # of iterations =  2.5

     total cpu time spent up to now is       94.5 secs

     total energy              =     -89.84959129 Ry
     Harris-Foulkes estimate   =     -89.84969090 Ry
     estimated scf accuracy    <       0.00032818 Ry

     iteration #  7     ecut=    40.00 Ry     beta= 0.50
     Davidson diagonalization with overlap
     ethr =  1.03E-06,  avg # of iterations =  4.4

     total cpu time spent up to now is       97.7 secs

     total energy              =     -89.84975817 Ry
     Harris-Foulkes estimate   =     -89.84983395 Ry
     estimated scf accuracy    <       0.00050628 Ry

     iteration #  8     ecut=    40.00 Ry     beta= 0.50
     Davidson diagonalization with overlap
     ethr =  1.03E-06,  avg # of iterations =  1.2

     total cpu time spent up to now is       99.2 secs

     total energy              =     -89.84978729 Ry
     Harris-Foulkes estimate   =     -89.84980766 Ry
     estimated scf accuracy    <       0.00013398 Ry

     iteration #  9     ecut=    40.00 Ry     beta= 0.50
     Davidson diagonalization with overlap
     ethr =  4.19E-07,  avg # of iterations =  1.0

     total cpu time spent up to now is      100.5 secs

     total energy              =     -89.84977055 Ry
     Harris-Foulkes estimate   =     -89.84979120 Ry
     estimated scf accuracy    <       0.00007343 Ry

     iteration # 10     ecut=    40.00 Ry     beta= 0.50
     Davidson diagonalization with overlap
     ethr =  2.29E-07,  avg # of iterations =  1.2

     total cpu time spent up to now is      102.0 secs

     total energy              =     -89.84977449 Ry
     Harris-Foulkes estimate   =     -89.84977651 Ry
     estimated scf accuracy    <       0.00000835 Ry

     iteration # 11     ecut=    40.00 Ry     beta= 0.50
     Davidson diagonalization with overlap
     ethr =  2.61E-08,  avg # of iterations =  2.8

     total cpu time spent up to now is      104.4 secs

     total energy              =     -89.84977629 Ry
     Harris-Foulkes estimate   =     -89.84977635 Ry
     estimated scf accuracy    <       0.00000026 Ry

     iteration # 12     ecut=    40.00 Ry     beta= 0.50
     Davidson diagonalization with overlap
     ethr =  8.25E-10,  avg # of iterations =  3.0

     total cpu time spent up to now is      107.0 secs

     End of self-consistent calculation

          k = 0.0000 0.0000 0.0000 (  2379 PWs)   bands (ev):

   -17.4098 -17.0465 -12.0081  -9.2474  -7.1419  -6.4241  -5.9974  -2.9357
    -2.0034  -1.4790  -1.0373  -0.0897   0.0610   0.8038   1.8464   3.8040
     5.0730   6.7953   6.8499   7.1061

          k = 0.0011 0.0001 0.6702 (  2360 PWs)   bands (ev):

   -17.0208 -16.6926 -11.5947  -8.9173  -6.8818  -5.9684  -5.4786  -3.5855
    -2.6665  -2.4354  -1.7299  -0.7742   0.7209   1.2245   1.7131   2.3197
     4.7963   4.8329   4.8672   5.8655

          k =-0.0023-0.0002-1.3404 (  2370 PWs)   bands (ev):

   -16.5709 -16.2899 -11.0999  -8.5438  -6.5606  -5.4468  -5.4192  -4.8179
    -4.2119  -2.2089  -1.4360  -0.4699  -0.0516   1.1339   2.2085   2.9698
     3.0452   3.1699   3.3416   6.0838

          k =-0.0014-0.7756 0.0018 (  2358 PWs)   bands (ev):

   -17.3744 -17.0502 -11.9981  -9.3708  -7.0162  -6.9799  -6.0786  -2.7635
    -1.8766  -0.9986  -0.5591   0.0485   0.1954   0.3460   2.7161   3.8496
     4.9012   6.6510   6.7312   7.0295

          k =-0.0003-0.7755 0.6720 (  2359 PWs)   bands (ev):

   -16.9904 -16.6957 -11.5864  -9.0230  -6.7773  -6.4662  -5.5492  -3.4596
    -2.5661  -2.4377  -1.6107   0.2020   0.5998   0.9835   1.7500   3.1990
     4.2963   4.5633   4.8235   5.7475

          k =-0.0037-0.7759-1.3386 (  2358 PWs)   bands (ev):

   -16.5472 -16.2922 -11.0940  -8.6272  -6.4882  -5.8293  -5.3345  -4.8718
    -4.2346  -2.1073  -1.3311  -0.3542   0.7254   1.3397   1.7844   2.4380
     2.7903   2.9934   3.8755   5.8885

          k =-0.5014-0.0023 0.0002 (  2380 PWs)   bands (ev):

   -17.3876 -17.0747 -11.9464  -9.4443  -6.8964  -6.5562  -5.7968  -3.2811
    -1.7507  -1.4879  -1.0151  -0.6296   0.0137   1.1574   2.0954   3.9085
     5.5495   6.1870   6.6279   7.1400

          k =-0.5003-0.0022 0.6704 (  2365 PWs)   bands (ev):

   -17.0011 -16.7171 -11.5417  -9.0896  -6.6730  -6.0857  -5.2856  -3.5226
    -2.9394  -2.7039  -1.4726  -0.5307   0.0654   1.5812   1.6996   2.7216
     4.4501   4.8461   4.9331   6.1845

          k =-0.5037-0.0025-1.3402 (  2376 PWs)   bands (ev):

   -16.5547 -16.3096 -11.0569  -8.6840  -6.4026  -5.5134  -5.3930  -4.6384
    -4.3316  -2.5427  -1.1936  -0.1823  -0.0625   0.7531   2.4669   2.5008
     3.2042   3.2058   3.3170   6.4459

          k =-0.5028-0.7780 0.0020 (  2378 PWs)   bands (ev):

   -17.3608 -17.0667 -11.9834  -9.3873  -7.1014  -7.0196  -5.8035  -3.2549
    -1.5739  -0.9884  -0.6009   0.0190   0.0307   0.8607   2.4000   3.8484
     5.3358   6.3037   6.7397   6.9842

          k =-0.5017-0.7779 0.6721 (  2353 PWs)   bands (ev):

   -16.9780 -16.7104 -11.5722  -9.0446  -6.7696  -6.5748  -5.2927  -3.4358
    -2.9574  -2.5411  -1.3343   0.2477   0.3900   1.3917   1.8321   2.7859
     4.3629   4.7305   4.9224   6.0456

          k =-0.5051-0.7782-1.3384 (  2352 PWs)   bands (ev):

   -16.5365 -16.3047 -11.0800  -8.6549  -6.4709  -5.9193  -5.3085  -4.6435
    -4.2799  -2.5134  -1.0782  -0.3615   0.6474   1.2610   2.1351   2.4723
     2.8668   3.1802   3.6428   5.8433

     the Fermi energy is     3.1536 ev

!    total energy              =     -89.84977634 Ry
     Harris-Foulkes estimate   =     -89.84977638 Ry
     estimated scf accuracy    <       0.00000005 Ry

     The total energy is the sum of the following terms:

     one-electron contribution =     -43.60699869 Ry
     hartree contribution      =      33.59456478 Ry
     xc contribution           =     -26.81078691 Ry
     ewald contribution        =     -53.02634758 Ry
     smearing contrib. (-TS)   =      -0.00020794 Ry

     convergence has been achieved in  12 iterations

     Forces acting on atoms (cartesian axes, Ry/au):

     atom    1 type  1   force =     0.00380014    0.00167136    0.00012395
     atom    2 type  1   force =     0.00133763   -0.00326001   -0.00004474
     atom    3 type  1   force =     0.00315776    0.00356682   -0.00025711
     atom    4 type  1   force =    -0.00106705    0.00845349    0.00011289
     atom    5 type  1   force =     0.00135355   -0.00865402   -0.00010711
     atom    6 type  1   force =    -0.00142907    0.00337905    0.00008044
     atom    7 type  1   force =    -0.00312559   -0.00349357    0.00021472
     atom    8 type  1   force =    -0.00402737   -0.00166312   -0.00012304

     Total force =     0.016008     Total SCF correction =     0.000513


     Computing stress (Cartesian axis) and pressure

          total   stress  (Ry/bohr**3)                   (kbar)     P=        3.98
   0.00001653  -0.00003914   0.00000045            2.43       -5.76        0.07
  -0.00003914   0.00007991  -0.00000042           -5.76       11.76       -0.06
   0.00000045  -0.00000042  -0.00001530            0.07       -0.06       -2.25


     number of scf cycles    =   7
     number of bfgs steps    =   6

     enthalpy old            =     -89.8464592573 Ry
     enthalpy new            =     -89.8497324587 Ry

     CASE: enthalpy_new < enthalpy_old

     new trust radius        =       0.0394766119 bohr
     new conv_thr            =       0.0000000865 Ry

     new unit-cell volume =    655.52674 a.u.^3 (    97.13904 Ang^3 )
     density =      1.64107 g/cm^3

CELL_PARAMETERS (bohr)
  13.879823857  -0.054805315  -0.024851771
  -0.061656059   9.034667531  -0.001390691
   0.001205567   0.012073448   5.227639599

ATOMIC_POSITIONS (crystal)
C             0.3018299496        0.8487789771        0.5033827814
C             0.6542767128        0.5338650411        0.5019236054
C             0.1121527156       -0.1151419594        0.5029951761
C             0.8494462898        0.4926141181        0.5025216947
C             0.2073745921        0.1454072714        0.5025105985
C             0.4025543190        0.1045166417        0.5028971391
C             0.9449352237        0.7528948978        0.5021772746
C             0.7552471973        0.7893710123        0.5016937303



     Writing output data file ./pp.save/
     NEW-OLD atomic charge density approx. for the potential
     extrapolated charge   32.48672, renormalised to   32.00000

     total cpu time spent up to now is      107.1 secs

     Self-consistent Calculation

     iteration #  1     ecut=    40.00 Ry     beta= 0.50
     Davidson diagonalization with overlap
     ethr =  1.00E-06,  avg # of iterations =  6.6

     total cpu time spent up to now is      112.4 secs

     total energy              =     -89.81887833 Ry
     Harris-Foulkes estimate   =     -89.34713515 Ry
     estimated scf accuracy    <       0.03365655 Ry

     iteration #  2     ecut=    40.00 Ry     beta= 0.50
     Davidson diagonalization with overlap
     ethr =  1.05E-04,  avg # of iterations =  3.8

     total cpu time spent up to now is      115.8 secs

     total energy              =     -89.82152701 Ry
     Harris-Foulkes estimate   =     -89.89778260 Ry
     estimated scf accuracy    <       0.39890760 Ry

     iteration #  3     ecut=    40.00 Ry     beta= 0.50
     Davidson diagonalization with overlap
     ethr =  1.05E-04,  avg # of iterations =  3.3

     total cpu time spent up to now is      118.5 secs

     total energy              =     -89.85112444 Ry
     Harris-Foulkes estimate   =     -89.85294596 Ry
     estimated scf accuracy    <       0.01022829 Ry

     iteration #  4     ecut=    40.00 Ry     beta= 0.50
     Davidson diagonalization with overlap
     ethr =  3.20E-05,  avg # of iterations =  1.0

     total cpu time spent up to now is      120.1 secs

     total energy              =     -89.85083156 Ry
     Harris-Foulkes estimate   =     -89.85146073 Ry
     estimated scf accuracy    <       0.00586746 Ry

     iteration #  5     ecut=    40.00 Ry     beta= 0.50
     Davidson diagonalization with overlap
     ethr =  1.83E-05,  avg # of iterations =  1.0

     total cpu time spent up to now is      121.6 secs

     total energy              =     -89.85039696 Ry
     Harris-Foulkes estimate   =     -89.85094989 Ry
     estimated scf accuracy    <       0.00325445 Ry

     iteration #  6     ecut=    40.00 Ry     beta= 0.50
     Davidson diagonalization with overlap
     ethr =  1.02E-05,  avg # of iterations =  1.3

     total cpu time spent up to now is      123.3 secs

     total energy              =     -89.85026423 Ry
     Harris-Foulkes estimate   =     -89.85054925 Ry
     estimated scf accuracy    <       0.00125544 Ry

     iteration #  7     ecut=    40.00 Ry     beta= 0.50
     Davidson diagonalization with overlap
     ethr =  3.92E-06,  avg # of iterations =  2.8

     total cpu time spent up to now is      125.8 secs

     total energy              =     -89.85040019 Ry
     Harris-Foulkes estimate   =     -89.85042757 Ry
     estimated scf accuracy    <       0.00007340 Ry

     iteration #  8     ecut=    40.00 Ry     beta= 0.50
     Davidson diagonalization with overlap
     ethr =  2.29E-07,  avg # of iterations =  3.1

     total cpu time spent up to now is      128.7 secs

     total energy              =     -89.85041948 Ry
     Harris-Foulkes estimate   =     -89.85042007 Ry
     estimated scf accuracy    <       0.00000494 Ry

     iteration #  9     ecut=    40.00 Ry     beta= 0.50
     Davidson diagonalization with overlap
     ethr =  1.54E-08,  avg # of iterations =  3.2

     total cpu time spent up to now is      131.7 secs

     total energy              =     -89.85041803 Ry
     Harris-Foulkes estimate   =     -89.85042400 Ry
     estimated scf accuracy    <       0.00002181 Ry

     iteration # 10     ecut=    40.00 Ry     beta= 0.50
     Davidson diagonalization with overlap
     ethr =  1.54E-08,  avg # of iterations =  2.6

     total cpu time spent up to now is      134.3 secs

     total energy              =     -89.85041919 Ry
     Harris-Foulkes estimate   =     -89.85041973 Ry
     estimated scf accuracy    <       0.00000200 Ry

     iteration # 11     ecut=    40.00 Ry     beta= 0.50
     Davidson diagonalization with overlap
[...]
     Harris-Foulkes estimate   =     -89.89906272 Ry
     estimated scf accuracy    <       0.00000126 Ry

     iteration #  6     ecut=    40.00 Ry     beta= 0.50
     Davidson diagonalization with overlap
     ethr =  3.92E-09,  avg # of iterations =  3.5

     total cpu time spent up to now is     2144.6 secs

     total energy              =     -89.89906261 Ry
     Harris-Foulkes estimate   =     -89.89906298 Ry
     estimated scf accuracy    <       0.00000098 Ry

     iteration #  7     ecut=    40.00 Ry     beta= 0.50
     Davidson diagonalization with overlap
     ethr =  3.06E-09,  avg # of iterations =  2.9

     total cpu time spent up to now is     2156.1 secs

     total energy              =     -89.89906272 Ry
     Harris-Foulkes estimate   =     -89.89906276 Ry
     estimated scf accuracy    <       0.00000010 Ry

     iteration #  8     ecut=    40.00 Ry     beta= 0.50
     Davidson diagonalization with overlap
     ethr =  3.02E-10,  avg # of iterations =  3.0

     total cpu time spent up to now is     2169.2 secs

     total energy              =     -89.89906273 Ry
     Harris-Foulkes estimate   =     -89.89906277 Ry
     estimated scf accuracy    <       0.00000009 Ry

     iteration #  9     ecut=    40.00 Ry     beta= 0.50
     Davidson diagonalization with overlap
     ethr =  2.79E-10,  avg # of iterations =  2.2

     total cpu time spent up to now is     2179.6 secs

     End of self-consistent calculation

          k = 0.0000 0.0000 0.0000 (  2379 PWs)   bands (ev):

   -20.1512 -19.8640 -14.8016 -12.2368 -10.1374  -8.8528  -8.0633  -5.5546
    -5.3099  -4.4636  -4.1823  -3.4067  -2.9031  -0.9887  -0.7294  -0.6733
     2.6758   2.7404   3.0884   3.0945

          k =-0.0017-0.0010 0.5541 (  2360 PWs)   bands (ev):

   -20.0550 -19.7791 -14.6922 -12.1569 -10.0770  -8.7079  -7.8932  -6.4953
    -5.3944  -5.2045  -4.1053  -3.0790  -2.5885  -1.5710  -0.7030  -0.5149
     1.8614   2.1465   2.1609   2.9575

          k = 0.0034 0.0021-1.1082 (  2370 PWs)   bands (ev):

   -19.9553 -19.6911 -14.5762 -12.0729 -10.0111  -8.5545  -7.7091  -7.2717
    -6.1147  -5.1034  -4.0274  -2.7615  -2.3950  -2.3472  -0.4216  -0.2359
     1.0985   1.3606   1.4201   3.0672

          k = 0.0127-0.7077 0.0025 (  2358 PWs)   bands (ev):

   -20.1428 -19.8645 -14.8037 -12.2525 -10.1249  -9.0783  -8.0649  -5.5326
    -5.2536  -4.4614  -4.1335  -2.9602  -2.6840  -1.2138  -0.6702  -0.4619
     2.5356   2.6498   2.9810   3.1004

          k = 0.0110-0.7087 0.5566 (  2359 PWs)   bands (ev):

   -20.0477 -19.7796 -14.6944 -12.1709 -10.0668  -8.9133  -7.8932  -6.4575
    -5.3941  -5.1602  -4.0610  -2.6455  -2.4523  -1.5276  -0.9592  -0.2440
     1.7461   1.8526   2.1499   2.8518

          k = 0.0161-0.7056-1.1057 (  2358 PWs)   bands (ev):

   -19.9485 -19.6913 -14.5780 -12.0855 -10.0034  -8.7353  -7.7062  -7.2276
    -6.1168  -5.0615  -3.9853  -2.4455  -2.3432  -2.1782  -0.6214  -0.0114
     0.9175   1.0747   1.3580   2.9424

          k =-0.4566 0.0027 0.0013 (  2380 PWs)   bands (ev):

   -20.1467 -19.8693 -14.7885 -12.2814 -10.0860  -8.8833  -7.9969  -5.5471
    -5.4702  -4.4775  -4.0413  -3.3987  -3.0519  -0.8297  -0.6931  -0.6387
     2.6068   2.7822   3.0780   3.1123

          k =-0.4583 0.0017 0.5554 (  2365 PWs)   bands (ev):

   -20.0510 -19.7841 -14.6802 -12.1975 -10.0306  -8.7360  -7.8307  -6.4819
    -5.4267  -5.3634  -3.9707  -3.0351  -2.7431  -1.5096  -0.6079  -0.4485
     1.7133   2.1335   2.1932   2.9818

          k =-0.4532 0.0048-1.1069 (  2376 PWs)   bands (ev):

   -19.9516 -19.6955 -14.5655 -12.1101  -9.9710  -8.5795  -7.6508  -7.2572
    -6.1491  -5.2495  -3.9007  -2.7902  -2.4602  -2.2608  -0.3162  -0.2045
     0.8729   1.3794   1.4286   3.0942

          k =-0.4439-0.7049 0.0038 (  2378 PWs)   bands (ev):

   -20.1391 -19.8693 -14.7939 -12.2822 -10.0939  -9.1067  -7.9919  -5.5286
    -5.4285  -4.4744  -3.9870  -3.2077  -2.4282  -1.0672  -0.6664  -0.6302
     2.6115   2.6275   2.9703   3.1193

          k =-0.4456-0.7060 0.5579 (  2353 PWs)   bands (ev):

   -20.0441 -19.7838 -14.6852 -12.1993 -10.0374  -8.9392  -7.8245  -6.4476
    -5.4262  -5.3159  -3.9241  -2.8740  -2.2188  -1.4959  -0.7862  -0.4444
     1.7346   1.8159   2.1943   2.8990

          k =-0.4405-0.7029-1.1044 (  2352 PWs)   bands (ev):

   -19.9449 -19.6954 -14.5695 -12.1116  -9.9773  -8.7588  -7.6432  -7.2164
    -6.1415  -5.2146  -3.8578  -2.6613  -2.2979  -1.9579  -0.4918  -0.1644
     0.8834   1.0266   1.4199   2.9952

     the Fermi energy is     0.0012 ev

!    total energy              =     -89.89906274 Ry
     Harris-Foulkes estimate   =     -89.89906275 Ry
     estimated scf accuracy    <          2.8E-09 Ry

     The total energy is the sum of the following terms:

     one-electron contribution =     -81.39166366 Ry
     hartree contribution      =      49.07394547 Ry
     xc contribution           =     -26.75324177 Ry
     ewald contribution        =     -30.83291488 Ry
     smearing contrib. (-TS)   =       0.00481209 Ry

     convergence has been achieved in   9 iterations

     Forces acting on atoms (cartesian axes, Ry/au):

     atom    1 type  1   force =     0.00038715    0.00040203    0.00067256
     atom    2 type  1   force =     0.00023136   -0.00021365   -0.00055744
     atom    3 type  1   force =    -0.00030691   -0.00007886   -0.00003617
     atom    4 type  1   force =     0.00023080    0.00055162    0.00039979
     atom    5 type  1   force =    -0.00016693   -0.00075064   -0.00036968
     atom    6 type  1   force =    -0.00034078    0.00042419    0.00055406
     atom    7 type  1   force =     0.00009591    0.00038193    0.00005890
     atom    8 type  1   force =    -0.00013060   -0.00071663   -0.00072201

     Total force =     0.002082     Total SCF correction =     0.000104


     Computing stress (Cartesian axis) and pressure

          total   stress  (Ry/bohr**3)                   (kbar)     P=       -0.03
  -0.00000230   0.00000576   0.00000085           -0.34        0.85        0.12
   0.00000576   0.00000114   0.00000013            0.85        0.17        0.02
   0.00000085   0.00000013   0.00000053            0.12        0.02        0.08


     number of scf cycles    =  35
     number of bfgs steps    =  34

     enthalpy old            =     -89.8989825620 Ry
     enthalpy new            =     -89.8989988506 Ry

     CASE: enthalpy_new < enthalpy_old

     new trust radius        =       0.0156181252 bohr
     new conv_thr            =       0.0000000100 Ry

     new unit-cell volume =    938.38601 a.u.^3 (   139.05446 Ang^3 )
     density =      1.14640 g/cm^3

CELL_PARAMETERS (bohr)
  15.218927862   0.274545149   0.050362198
   0.060770189   9.820332465   0.018894691
   0.019037652   0.022683682   6.279528809

ATOMIC_POSITIONS (crystal)
C             0.2789212936        0.8338642321        0.5179804750
C             0.6803530289        0.5779404138        0.4888399595
C             0.1028676440       -0.1291968702        0.5034879278
C             0.8586396398        0.5363359067        0.5047291476
C             0.1981412723        0.1018075460        0.5003312432
C             0.3765478461        0.0603360492        0.5169340477
C             0.9542351123        0.7667098088        0.5009034923
C             0.7781111631        0.8045089136        0.4868957069



     Writing output data file ./pp.save/
     NEW-OLD atomic charge density approx. for the potential
     extrapolated charge   31.94796, renormalised to   32.00000

     total cpu time spent up to now is     2180.1 secs

     Self-consistent Calculation

     iteration #  1     ecut=    40.00 Ry     beta= 0.50
     Davidson diagonalization with overlap
     ethr =  1.00E-06,  avg # of iterations =  4.7

     total cpu time spent up to now is     2200.7 secs

     total energy              =     -89.89880253 Ry
     Harris-Foulkes estimate   =     -90.00185038 Ry
     estimated scf accuracy    <       0.00035869 Ry

     iteration #  2     ecut=    40.00 Ry     beta= 0.50
     Davidson diagonalization with overlap
     ethr =  1.12E-06,  avg # of iterations =  4.0

     total cpu time spent up to now is     2217.8 secs

     total energy              =     -89.89901548 Ry
     Harris-Foulkes estimate   =     -89.89927931 Ry
     estimated scf accuracy    <       0.00087042 Ry

     iteration #  3     ecut=    40.00 Ry     beta= 0.50
     Davidson diagonalization with overlap
     ethr =  1.12E-06,  avg # of iterations =  3.0

     total cpu time spent up to now is     2230.5 secs

     total energy              =     -89.89909285 Ry
     Harris-Foulkes estimate   =     -89.89911081 Ry
     estimated scf accuracy    <       0.00006113 Ry

     iteration #  4     ecut=    40.00 Ry     beta= 0.50
     Davidson diagonalization with overlap
     ethr =  1.91E-07,  avg # of iterations =  1.9

     total cpu time spent up to now is     2240.3 secs

     total energy              =     -89.89908920 Ry
     Harris-Foulkes estimate   =     -89.89909770 Ry
     estimated scf accuracy    <       0.00002445 Ry

     iteration #  5     ecut=    40.00 Ry     beta= 0.50
     Davidson diagonalization with overlap
     ethr =  7.64E-08,  avg # of iterations =  2.2

     total cpu time spent up to now is     2251.3 secs

     total energy              =     -89.89909348 Ry
     Harris-Foulkes estimate   =     -89.89909402 Ry
     estimated scf accuracy    <       0.00000222 Ry

     iteration #  6     ecut=    40.00 Ry     beta= 0.50
     Davidson diagonalization with overlap
     ethr =  6.94E-09,  avg # of iterations =  3.3

     total cpu time spent up to now is     2265.0 secs

     total energy              =     -89.89909384 Ry
     Harris-Foulkes estimate   =     -89.89909425 Ry
     estimated scf accuracy    <       0.00000093 Ry

     iteration #  7     ecut=    40.00 Ry     beta= 0.50
     Davidson diagonalization with overlap
     ethr =  2.91E-09,  avg # of iterations =  3.0

     total cpu time spent up to now is     2277.9 secs

     total energy              =     -89.89909406 Ry
     Harris-Foulkes estimate   =     -89.89909409 Ry
     estimated scf accuracy    <       0.00000013 Ry

     iteration #  8     ecut=    40.00 Ry     beta= 0.50
     Davidson diagonalization with overlap
     ethr =  4.04E-10,  avg # of iterations =  1.9

     total cpu time spent up to now is     2287.8 secs

     total energy              =     -89.89909406 Ry
     Harris-Foulkes estimate   =     -89.89909408 Ry
     estimated scf accuracy    <       0.00000007 Ry

     iteration #  9     ecut=    40.00 Ry     beta= 0.50
     Davidson diagonalization with overlap
     ethr =  2.05E-10,  avg # of iterations =  2.0

     total cpu time spent up to now is     2297.8 secs

     End of self-consistent calculation

          k = 0.0000 0.0000 0.0000 (  2379 PWs)   bands (ev):

   -20.1413 -19.8540 -14.7913 -12.2263 -10.1275  -8.8395  -8.0534  -5.5470
    -5.3000  -4.4555  -4.1717  -3.3996  -2.8887  -0.9796  -0.7134  -0.6646
     2.6838   2.7500   3.0945   3.1001

          k =-0.0018-0.0011 0.5538 (  2360 PWs)   bands (ev):

   -20.0455 -19.7694 -14.6823 -12.1467 -10.0673  -8.6956  -7.8840  -6.4855
    -5.3836  -5.1953  -4.0950  -3.0723  -2.5750  -1.5601  -0.6946  -0.4992
     1.8731   2.1554   2.1736   2.9672

          k = 0.0036 0.0021-1.1077 (  2370 PWs)   bands (ev):

   -19.9461 -19.6817 -14.5668 -12.0630 -10.0016  -8.5435  -7.7009  -7.2595
    -6.1019  -5.0947  -4.0176  -2.7556  -2.3850  -2.3308  -0.4143  -0.2216
     1.1131   1.3718   1.4365   3.0764

          k = 0.0128-0.7084 0.0025 (  2358 PWs)   bands (ev):

   -20.1327 -19.8545 -14.7935 -12.2422 -10.1146  -9.0694  -8.0523  -5.5246
    -5.2417  -4.4535  -4.1222  -2.9537  -2.6668  -1.2087  -0.6622  -0.4424
     2.5475   2.6574   2.9854   3.1068

          k = 0.0110-0.7094 0.5564 (  2359 PWs)   bands (ev):

   -20.0380 -19.7700 -14.6846 -12.1610 -10.0568  -8.9050  -7.8814  -6.4470
    -5.3839  -5.1491  -4.0500  -2.6397  -2.4360  -1.5164  -0.9544  -0.2260
     1.7599   1.8588   2.1619   2.8619

          k = 0.0164-0.7063-1.1052 (  2358 PWs)   bands (ev):

   -19.9392 -19.6820 -14.5687 -12.0760  -9.9936  -8.7278  -7.6956  -7.2148
    -6.1046  -5.0512  -3.9748  -2.4404  -2.3294  -2.1628  -0.6173   0.0039
     0.9343   1.0827   1.3733   2.9521

          k =-0.4571 0.0028 0.0014 (  2380 PWs)   bands (ev):

   -20.1369 -19.8593 -14.7781 -12.2708 -10.0757  -8.8703  -7.9870  -5.5396
    -5.4602  -4.4693  -4.0302  -3.3861  -3.0454  -0.8179  -0.6779  -0.6299
     2.6143   2.7982   3.0854   3.1173

          k =-0.4589 0.0018 0.5552 (  2365 PWs)   bands (ev):

   -20.0414 -19.7744 -14.6703 -12.1874 -10.0206  -8.7239  -7.8216  -6.4721
    -5.4159  -5.3540  -3.9602  -3.0232  -2.7370  -1.4989  -0.5960  -0.4343
     1.7239   2.1475   2.2028   2.9965

          k =-0.4535 0.0049-1.1063 (  2376 PWs)   bands (ev):

   -19.9425 -19.6862 -14.5560 -12.1003  -9.9614  -8.5687  -7.6428  -7.2450
    -6.1362  -5.2407  -3.8908  -2.7786  -2.4550  -2.2476  -0.3059  -0.1920
     0.8867   1.3968   1.4408   3.1077

          k =-0.4443-0.7055 0.0039 (  2378 PWs)   bands (ev):

   -20.1290 -19.8593 -14.7838 -12.2717 -10.0836  -9.0980  -7.9790  -5.5210
    -5.4171  -4.4663  -3.9755  -3.1976  -2.4144  -1.0595  -0.6567  -0.6165
     2.6276   2.6352   2.9765   3.1257

          k =-0.4461-0.7066 0.5577 (  2353 PWs)   bands (ev):

   -20.0344 -19.7742 -14.6754 -12.1892 -10.0274  -8.9311  -7.8125  -6.4372
    -5.4161  -5.3049  -3.9131  -2.8647  -2.2062  -1.4853  -0.7792  -0.4295
     1.7429   1.8303   2.2072   2.9130

          k =-0.4407-0.7034-1.1038 (  2352 PWs)   bands (ev):

   -19.9356 -19.6861 -14.5602 -12.1018  -9.9676  -8.7515  -7.6325  -7.2037
    -6.1290  -5.2047  -3.8473  -2.6526  -2.2857  -1.9458  -0.4858  -0.1512
     0.8940   1.0438   1.4367   3.0082

     the Fermi energy is     0.0175 ev

!    total energy              =     -89.89909407 Ry
     Harris-Foulkes estimate   =     -89.89909407 Ry
     estimated scf accuracy    <          6.5E-09 Ry

     The total energy is the sum of the following terms:

     one-electron contribution =     -81.15620593 Ry
     hartree contribution      =      48.96890979 Ry
     xc contribution           =     -26.75414802 Ry
     ewald contribution        =     -30.96239037 Ry
     smearing contrib. (-TS)   =       0.00474046 Ry

     convergence has been achieved in   9 iterations

     Forces acting on atoms (cartesian axes, Ry/au):

     atom    1 type  1   force =     0.00058173   -0.00038685    0.00083687
     atom    2 type  1   force =     0.00019971   -0.00062059   -0.00056596
     atom    3 type  1   force =     0.00005574   -0.00018460    0.00006075
     atom    4 type  1   force =    -0.00005863    0.00054849    0.00041378
     atom    5 type  1   force =    -0.00013150   -0.00103928   -0.00047161
     atom    6 type  1   force =    -0.00023146    0.00106714    0.00057426
     atom    7 type  1   force =    -0.00031788    0.00097286   -0.00002993
     atom    8 type  1   force =    -0.00009772   -0.00035717   -0.00081815

     Total force =     0.002673     Total SCF correction =     0.000174


     Computing stress (Cartesian axis) and pressure

          total   stress  (Ry/bohr**3)                   (kbar)     P=        0.22
   0.00000113   0.00000758   0.00000098            0.17        1.11        0.14
   0.00000758   0.00000435   0.00000020            1.11        0.64        0.03
   0.00000098   0.00000020  -0.00000091            0.14        0.03       -0.13


     number of scf cycles    =  36
     number of bfgs steps    =  35

     enthalpy old            =     -89.8989988506 Ry
     enthalpy new            =     -89.8990302758 Ry

     CASE: enthalpy_new < enthalpy_old

     new trust radius        =       0.0234133519 bohr
     new conv_thr            =       0.0000000100 Ry

     new unit-cell volume =    936.65544 a.u.^3 (   138.79801 Ang^3 )
     density =      1.14852 g/cm^3

CELL_PARAMETERS (bohr)
  15.195931280   0.283292895   0.055892197
   0.067283044   9.812398418   0.019636093
   0.020537962   0.022978457   6.282625783

ATOMIC_POSITIONS (crystal)
C             0.2790242673        0.8353816063        0.5206755988
C             0.6805720015        0.5762048011        0.4866388308
C             0.1027817180       -0.1286409109        0.5033100435
C             0.8592192417        0.5350851330        0.5063596073
C             0.1975611492        0.1031571640        0.4989844984
C             0.3763497384        0.0619798066        0.5190667180
C             0.9543479743        0.7660440160        0.5011289921
C             0.7779609096        0.8030943840        0.4839377111



     Writing output data file ./pp.save/
     NEW-OLD atomic charge density approx. for the potential
     extrapolated charge   31.94088, renormalised to   32.00000

     total cpu time spent up to now is     2298.2 secs

     Self-consistent Calculation

     iteration #  1     ecut=    40.00 Ry     beta= 0.50
     Davidson diagonalization with overlap
     ethr =  1.00E-06,  avg # of iterations =  5.0

     total cpu time spent up to now is     2320.8 secs

     total energy              =     -89.89872820 Ry
     Harris-Foulkes estimate   =     -90.01554740 Ry
     estimated scf accuracy    <       0.00067052 Ry

     iteration #  2     ecut=    40.00 Ry     beta= 0.50
     Davidson diagonalization with overlap
     ethr =  2.10E-06,  avg # of iterations =  4.0

     total cpu time spent up to now is     2338.3 secs

     total energy              =     -89.89900041 Ry
     Harris-Foulkes estimate   =     -89.89940114 Ry
     estimated scf accuracy    <       0.00123601 Ry

     iteration #  3     ecut=    40.00 Ry     beta= 0.50
     Davidson diagonalization with overlap
     ethr =  2.10E-06,  avg # of iterations =  3.0

     total cpu time spent up to now is     2350.7 secs

     total energy              =     -89.89913904 Ry
     Harris-Foulkes estimate   =     -89.89916293 Ry
     estimated scf accuracy    <       0.00006963 Ry

     iteration #  4     ecut=    40.00 Ry     beta= 0.50
     Davidson diagonalization with overlap
     ethr =  2.18E-07,  avg # of iterations =  2.0

     total cpu time spent up to now is     2361.3 secs

     total energy              =     -89.89914325 Ry
     Harris-Foulkes estimate   =     -89.89914906 Ry
     estimated scf accuracy    <       0.00002107 Ry

     iteration #  5     ecut=    40.00 Ry     beta= 0.50
     Davidson diagonalization with overlap
     ethr =  6.59E-08,  avg # of iterations =  2.0

     total cpu time spent up to now is     2371.9 secs

     total energy              =     -89.89914631 Ry
     Harris-Foulkes estimate   =     -89.89914764 Ry
     estimated scf accuracy    <       0.00000499 Ry

     iteration #  6     ecut=    40.00 Ry     beta= 0.50
     Davidson diagonalization with overlap
     ethr =  1.56E-08,  avg # of iterations =  3.0

     total cpu time spent up to now is     2384.3 secs

     total energy              =     -89.89914726 Ry
     Harris-Foulkes estimate   =     -89.89914741 Ry
     estimated scf accuracy    <       0.00000061 Ry

     iteration #  7     ecut=    40.00 Ry     beta= 0.50
     Davidson diagonalization with overlap
     ethr =  1.92E-09,  avg # of iterations =  3.0

     total cpu time spent up to now is     2397.0 secs

     total energy              =     -89.89914736 Ry
     Harris-Foulkes estimate   =     -89.89914740 Ry
     estimated scf accuracy    <       0.00000013 Ry

     iteration #  8     ecut=    40.00 Ry     beta= 0.50
     Davidson diagonalization with overlap
     ethr =  4.19E-10,  avg # of iterations =  2.0

     total cpu time spent up to now is     2407.5 secs

     total energy              =     -89.89914739 Ry
     Harris-Foulkes estimate   =     -89.89914739 Ry
     estimated scf accuracy    <       0.00000002 Ry

     iteration #  9     ecut=    40.00 Ry     beta= 0.50
     Davidson diagonalization with overlap
