
     Program PWSCF v.6.5 starts on  8Jul2022 at 10:22:15 

     This program is part of the open-source Quantum ESPRESSO suite
     for quantum simulation of materials; please cite
         "P. Giannozzi et al., J. Phys.:Condens. Matter 21 395502 (2009);
         "P. Giannozzi et al., J. Phys.:Condens. Matter 29 465901 (2017);
          URL http://www.quantum-espresso.org", 
     in publications or presentations arising from this work. More details at
     http://www.quantum-espresso.org/quote

     Parallel version (MPI), running on    96 processors

     MPI processes distributed on     2 nodes
     R & G space division:  proc/nbgrp/npool/nimage =      96
     Waiting for input...
     Reading input from standard input
     Message from routine read_cards :
     DEPRECATED: no units specified in CELL_PARAMETERS card

     Current dimensions of program PWSCF are:
     Max number of different atomic species (ntypx) = 10
     Max number of k-points (npk) =  40000
     Max angular momentum in pseudopotentials (lmaxx) =  3

     Subspace diagonalization in iterative solution of the eigenvalue problem:
     one sub-group per band group will be used
     scalapack distributed-memory algorithm (size of sub-group:  9*  9 procs)

 
     Parallelization info
     --------------------
     sticks:   dense  smooth     PW     G-vecs:    dense   smooth      PW
     Min          15      15      4                  191      191      31
     Max          16      16      5                  193      193      35
     Sum        1455    1455    445                18415    18415    3133
 


     bravais-lattice index     =            0
     lattice parameter (alat)  =      11.6144  a.u.
     unit-cell volume          =     537.5273 (a.u.)^3
     number of atoms/cell      =            8
     number of atomic types    =            1
     number of electrons       =        32.00
     number of Kohn-Sham states=           20
     kinetic-energy cutoff     =      40.0000  Ry
     charge density cutoff     =     160.0000  Ry
     convergence threshold     =      1.0E-08
     mixing beta               =       0.5000
     number of iterations used =            8  plain     mixing
     Exchange-correlation=  SLA  PW   PBE  PBE
                           (   1   4   3   4   0   0   0)
     nstep                     =          250


     celldm(1)=  11.614405  celldm(2)=   0.000000  celldm(3)=   0.000000
     celldm(4)=   0.000000  celldm(5)=   0.000000  celldm(6)=   0.000000

     crystal axes: (cart. coord. in units of alat)
               a(1) = (   0.999629   0.024831   0.011159 )  
               a(2) = (   0.022885   0.850857   0.029377 )  
               a(3) = (   0.003504   0.011899   0.404093 )  

     reciprocal axes: (cart. coord. in units 2 pi/alat)
               b(1) = (  1.001121 -0.026654 -0.007897 )  
               b(2) = ( -0.028859  1.177250 -0.034415 )  
               b(3) = ( -0.025547 -0.084849  2.477398 )  


     PseudoPot. # 1 for C  read from file:
     ./C.pbe-van_bm.upf
     MD5 check sum: 1a69bf6b8db32088f5b2163dbdb77a27
     Pseudo is Ultrasoft, Zval =  4.0
     Generated by new atomic code, or converted to UPF format
     Using radial grid of  721 points,  4 beta functions with: 
                l(1) =   0
                l(2) =   0
                l(3) =   1
                l(4) =   1
     Q(r) pseudized with  8 coefficients,  rinner =    0.800   0.800   0.800


     atomic species   valence    mass     pseudopotential
        C              4.00    12.00000     C ( 1.00)

     No symmetry found



   Cartesian axes

     site n.     atom                  positions (alat units)
         1           C   tau(   1) = (   0.5597478   0.3250366   0.3555488  )
         2           C   tau(   2) = (   0.5679279   0.5737217   0.3381587  )
         3           C   tau(   3) = (   0.6659461   0.2237756   0.1520870  )
         4           C   tau(   4) = (   0.6708135   0.6622346   0.1382916  )
         5           C   tau(   5) = (   0.3678732   0.7278396   0.2886628  )
         6           C   tau(   6) = (   0.3416720   0.2220939   0.4146299  )
         7           C   tau(   7) = (   0.3368009   0.8386461   0.0768579  )
         8           C   tau(   8) = (   0.7390591   0.0149302   0.1277293  )

     number of k points=    12  Marzari-Vanderbilt smearing, width (Ry)=  0.0200
                       cart. coord. in units 2pi/alat
        k(    1) = (   0.0000000   0.0000000   0.0000000), wk =   0.1000000
        k(    2) = (  -0.0051093  -0.0169699   0.4954795), wk =   0.2000000
        k(    3) = (  -0.0102187  -0.0339397   0.9909591), wk =   0.2000000
        k(    4) = (   0.0144296  -0.5886249   0.0172077), wk =   0.1000000
        k(    5) = (   0.0093203  -0.6055948   0.5126872), wk =   0.2000000
        k(    6) = (   0.0042109  -0.6225646   1.0081667), wk =   0.2000000
        k(    7) = (  -0.5005605   0.0133272   0.0039484), wk =   0.1000000
        k(    8) = (  -0.5056699  -0.0036427   0.4994279), wk =   0.2000000
        k(    9) = (  -0.5107792  -0.0206125   0.9949075), wk =   0.2000000
        k(   10) = (  -0.4861309  -0.5752977   0.0211560), wk =   0.1000000
        k(   11) = (  -0.4912402  -0.5922676   0.5166356), wk =   0.2000000
        k(   12) = (  -0.4963496  -0.6092374   1.0121151), wk =   0.2000000

     Dense  grid:    18415 G-vectors     FFT dimensions: (  48,  40,  20)

     Estimated max dynamical RAM per process >       1.33 MB

     Estimated total dynamical RAM >     127.48 MB

     Initial potential from superposition of free atoms

     starting charge   31.99968, renormalised to   32.00000
     Starting wfcs are   32 randomized atomic wfcs

     total cpu time spent up to now is        0.6 secs

     Self-consistent Calculation

     iteration #  1     ecut=    40.00 Ry     beta= 0.50
     Davidson diagonalization with overlap
     ethr =  1.00E-02,  avg # of iterations =  2.0

     total cpu time spent up to now is        1.2 secs

     total energy              =     -90.33116259 Ry
     Harris-Foulkes estimate   =     -90.61129894 Ry
     estimated scf accuracy    <       0.58215558 Ry

     iteration #  2     ecut=    40.00 Ry     beta= 0.50
     Davidson diagonalization with overlap
     ethr =  1.82E-03,  avg # of iterations =  2.0

     total cpu time spent up to now is        1.7 secs

     total energy              =     -90.33241038 Ry
     Harris-Foulkes estimate   =     -90.42927592 Ry
     estimated scf accuracy    <       0.19831327 Ry

     iteration #  3     ecut=    40.00 Ry     beta= 0.50
     Davidson diagonalization with overlap
     ethr =  6.20E-04,  avg # of iterations =  2.0

     total cpu time spent up to now is        2.3 secs

     total energy              =     -90.33216540 Ry
     Harris-Foulkes estimate   =     -90.45191506 Ry
     estimated scf accuracy    <       0.45112247 Ry

     iteration #  4     ecut=    40.00 Ry     beta= 0.50
     Davidson diagonalization with overlap
     ethr =  6.20E-04,  avg # of iterations =  1.9

     total cpu time spent up to now is        2.8 secs

     total energy              =     -90.39057337 Ry
     Harris-Foulkes estimate   =     -90.39362887 Ry
     estimated scf accuracy    <       0.01132290 Ry

     iteration #  5     ecut=    40.00 Ry     beta= 0.50
     Davidson diagonalization with overlap
     ethr =  3.54E-05,  avg # of iterations =  2.2

     total cpu time spent up to now is        3.4 secs

     total energy              =     -90.39270750 Ry
     Harris-Foulkes estimate   =     -90.39292755 Ry
     estimated scf accuracy    <       0.00082569 Ry

     iteration #  6     ecut=    40.00 Ry     beta= 0.50
     Davidson diagonalization with overlap
     ethr =  2.58E-06,  avg # of iterations =  3.2

     total cpu time spent up to now is        4.1 secs

     total energy              =     -90.39287717 Ry
     Harris-Foulkes estimate   =     -90.39290171 Ry
     estimated scf accuracy    <       0.00015333 Ry

     iteration #  7     ecut=    40.00 Ry     beta= 0.50
     Davidson diagonalization with overlap
     ethr =  4.79E-07,  avg # of iterations =  2.0

     total cpu time spent up to now is        4.6 secs

     total energy              =     -90.39289534 Ry
     Harris-Foulkes estimate   =     -90.39290856 Ry
     estimated scf accuracy    <       0.00004208 Ry

     iteration #  8     ecut=    40.00 Ry     beta= 0.50
     Davidson diagonalization with overlap
     ethr =  1.32E-07,  avg # of iterations =  1.5

     total cpu time spent up to now is        5.1 secs

     total energy              =     -90.39290240 Ry
     Harris-Foulkes estimate   =     -90.39290494 Ry
     estimated scf accuracy    <       0.00000942 Ry

     iteration #  9     ecut=    40.00 Ry     beta= 0.50
     Davidson diagonalization with overlap
     ethr =  2.94E-08,  avg # of iterations =  1.5

     total cpu time spent up to now is        5.5 secs

     total energy              =     -90.39290412 Ry
     Harris-Foulkes estimate   =     -90.39290447 Ry
     estimated scf accuracy    <       0.00000120 Ry

     iteration # 10     ecut=    40.00 Ry     beta= 0.50
     Davidson diagonalization with overlap
     ethr =  3.76E-09,  avg # of iterations =  2.9

     total cpu time spent up to now is        6.2 secs

     total energy              =     -90.39290446 Ry
     Harris-Foulkes estimate   =     -90.39290458 Ry
     estimated scf accuracy    <       0.00000038 Ry

     iteration # 11     ecut=    40.00 Ry     beta= 0.50
     Davidson diagonalization with overlap
     ethr =  1.18E-09,  avg # of iterations =  2.0

     total cpu time spent up to now is        6.8 secs

     total energy              =     -90.39290454 Ry
     Harris-Foulkes estimate   =     -90.39290454 Ry
     estimated scf accuracy    <       0.00000004 Ry

     iteration # 12     ecut=    40.00 Ry     beta= 0.50
     Davidson diagonalization with overlap
     ethr =  1.17E-10,  avg # of iterations =  2.2

     total cpu time spent up to now is        7.4 secs

     End of self-consistent calculation

          k = 0.0000 0.0000 0.0000 (  2297 PWs)   bands (ev):

   -14.9726 -11.9436 -11.4072  -9.5255  -6.7603  -4.3424  -2.9245  -2.1684
    -0.0114   0.5182   0.7731   1.5055   2.4981   2.6987   4.0935   5.9988
     7.3337   7.8273   8.9673   9.7589

          k =-0.0051-0.0170 0.4955 (  2293 PWs)   bands (ev):

   -14.2469 -11.2786 -10.7691  -8.9584  -6.3080  -3.8052  -3.1372  -2.7611
    -1.8985  -1.3839  -0.0397   0.7085   1.4509   3.0186   4.2367   5.3871
     6.2185   7.3639   8.0940   9.4177

          k =-0.0102-0.0339 0.9910 (  2285 PWs)   bands (ev):

   -12.1501  -9.7328  -9.2510  -8.0876  -6.7540  -5.8139  -5.0273  -3.8210
    -2.7560  -1.9818  -1.4190   0.2635   1.3257   3.0597   4.1179   4.6530
     5.2828   6.6431   7.5702   8.1907

          k = 0.0144-0.5886 0.0172 (  2302 PWs)   bands (ev):

   -14.3286 -13.6328 -11.1104  -7.4721  -6.8397  -6.0338  -1.9433  -1.7167
    -0.3456   0.0229   0.1834   1.3160   1.8410   2.8044   4.3480   6.3345
     7.4644   8.0796   9.4869  10.5474

          k = 0.0093-0.6056 0.5127 (  2300 PWs)   bands (ev):

   -13.6253 -12.9104 -10.4971  -6.9554  -6.4855  -5.5249  -2.9129  -1.9251
    -1.4667  -1.1183  -0.4288  -0.1416   0.6689   3.2683   4.0922   5.7131
     6.3878   7.7286   8.0012  10.1577

          k = 0.0042-0.6226 1.0082 (  2307 PWs)   bands (ev):

   -11.6219 -10.8777  -9.1365  -7.6385  -7.0804  -5.5206  -4.6356  -3.5399
    -3.3148  -1.5993  -0.8756  -0.5911   1.5261   3.1751   3.9815   4.2647
     4.9629   6.3018   7.8510   8.7484

          k =-0.5006 0.0133 0.0039 (  2296 PWs)   bands (ev):

   -14.9646 -11.9507 -11.4289  -9.5217  -6.7881  -4.2850  -2.8514  -2.0424
    -0.0208   0.4940   0.8254   1.5589   1.9514   2.6001   4.2195   6.3660
     7.1973   7.7270   8.7776   9.4089

          k =-0.5057-0.0036 0.4994 (  2284 PWs)   bands (ev):

   -14.2392 -11.2850 -10.7905  -8.9529  -6.3320  -3.7705  -3.1280  -2.7145
    -1.8081  -1.3887  -0.0394   0.7873   1.5966   2.3415   4.3557   5.3929
     6.3073   7.5645   7.9681   9.0567

          k =-0.5108-0.0206 0.9949 (  2293 PWs)   bands (ev):

   -12.1432  -9.7320  -9.2691  -8.0841  -6.7632  -5.8193  -5.0229  -3.8345
    -2.7594  -1.9629  -1.4060   0.2722   1.5553   3.0578   3.8194   4.6275
     5.3211   6.5839   7.7184   8.0972

          k =-0.4861-0.5753 0.0212 (  2306 PWs)   bands (ev):

   -14.3195 -13.6279 -11.1569  -7.4986  -6.7853  -6.0245  -1.8867  -1.6464
    -0.2285   0.0206   0.3304   1.3159   1.8425   2.0813   4.5889   5.8384
     7.8561   8.0445   9.4138  10.2791

          k =-0.4912-0.5923 0.5166 (  2286 PWs)   bands (ev):

   -13.6165 -12.9057 -10.5403  -6.9759  -6.4479  -5.5098  -2.9144  -1.9259
    -1.4436  -1.0376  -0.4033  -0.1219   0.8842   2.6072   4.2836   5.5563
     6.3565   7.5516   8.3453   9.8833

          k =-0.4963-0.6092 1.0121 (  2299 PWs)   bands (ev):

   -11.6140 -10.8737  -9.1588  -7.6424  -7.0804  -5.5281  -4.6526  -3.5321
    -3.2971  -1.6034  -0.8652  -0.5701   1.7492   3.2042   3.6408   4.3148
     4.9864   6.3046   7.6987   8.8786

     the Fermi energy is     5.5310 ev

!    total energy              =     -90.39290454 Ry
     Harris-Foulkes estimate   =     -90.39290455 Ry
     estimated scf accuracy    <          5.7E-09 Ry

     The total energy is the sum of the following terms:

     one-electron contribution =     -77.99465285 Ry
     hartree contribution      =      53.20192329 Ry
     xc contribution           =     -27.55803571 Ry
     ewald contribution        =     -38.04164092 Ry
     smearing contrib. (-TS)   =      -0.00049835 Ry

     convergence has been achieved in  12 iterations

     Forces acting on atoms (cartesian axes, Ry/au):

     atom    1 type  1   force =     0.03211887   -0.00007401    0.00182290
     atom    2 type  1   force =    -0.00373137   -0.00363625    0.00289733
     atom    3 type  1   force =    -0.01572368    0.01537136   -0.00523989
     atom    4 type  1   force =     0.00455616    0.01105094   -0.00648408
     atom    5 type  1   force =    -0.00030724   -0.00679275    0.00932059
     atom    6 type  1   force =    -0.01944030    0.00079480    0.00616716
     atom    7 type  1   force =     0.00253315   -0.00040041   -0.01285487
     atom    8 type  1   force =    -0.00000559   -0.01631368    0.00437086

     Total force =     0.052661     Total SCF correction =     0.000147


     Computing stress (Cartesian axis) and pressure

          total   stress  (Ry/bohr**3)                   (kbar)     P=       -2.79
   0.00002883   0.00003437  -0.00001481            4.24        5.06       -2.18
   0.00003437   0.00020266   0.00010406            5.06       29.81       15.31
  -0.00001481   0.00010406  -0.00028834           -2.18       15.31      -42.42


     BFGS Geometry Optimization

     number of scf cycles    =   1
     number of bfgs steps    =   0

     enthalpy new            =     -90.3928680015 Ry

     new trust radius        =       0.0355841132 bohr
     new conv_thr            =       0.0000000100 Ry

     new unit-cell volume =    536.73600 a.u.^3 (    79.53607 Ang^3 )
     density =      2.00427 g/cm^3

CELL_PARAMETERS (bohr)
  11.618647011   0.300173871   0.125116738
   0.274356090   9.933366721   0.364350516
   0.039110124   0.151144774   4.659805086

ATOMIC_POSITIONS (crystal)
C             0.5516714645        0.3541662883        0.8392757246
C             0.5502867441        0.6470181118        0.7752177844
C             0.6581399606        0.2405996554        0.3395846004
C             0.6531937723        0.7566250287        0.2678021659
C             0.3465887685        0.8355826236        0.6460164189
C             0.3311792970        0.2374405924        1.0009824326
C             0.3144460074        0.9749222109        0.1079003604
C             0.7385149856       -0.0098145111        0.2973405128



     Writing output data file ./pp.save/
     NEW-OLD atomic charge density approx. for the potential
     extrapolated charge   31.95282, renormalised to   32.00000

     total cpu time spent up to now is        7.7 secs

     Self-consistent Calculation

     iteration #  1     ecut=    40.00 Ry     beta= 0.50
     Davidson diagonalization with overlap
     ethr =  1.00E-06,  avg # of iterations =  5.8

     total cpu time spent up to now is        9.1 secs

     total energy              =     -90.39465394 Ry
     Harris-Foulkes estimate   =     -90.50039045 Ry
     estimated scf accuracy    <       0.00246506 Ry

     iteration #  2     ecut=    40.00 Ry     beta= 0.50
     Davidson diagonalization with overlap
     ethr =  7.70E-06,  avg # of iterations =  2.5

     total cpu time spent up to now is        9.8 secs

     total energy              =     -90.39500953 Ry
     Harris-Foulkes estimate   =     -90.39651208 Ry
     estimated scf accuracy    <       0.00469445 Ry

     iteration #  3     ecut=    40.00 Ry     beta= 0.50
     Davidson diagonalization with overlap
     ethr =  7.70E-06,  avg # of iterations =  2.0

     total cpu time spent up to now is       10.4 secs

     total energy              =     -90.39559134 Ry
     Harris-Foulkes estimate   =     -90.39568722 Ry
     estimated scf accuracy    <       0.00018774 Ry

     iteration #  4     ecut=    40.00 Ry     beta= 0.50
     Davidson diagonalization with overlap
     ethr =  5.87E-07,  avg # of iterations =  2.2

     total cpu time spent up to now is       11.0 secs

     total energy              =     -90.39560063 Ry
     Harris-Foulkes estimate   =     -90.39569580 Ry
     estimated scf accuracy    <       0.00032685 Ry

     iteration #  5     ecut=    40.00 Ry     beta= 0.50
     Davidson diagonalization with overlap
     ethr =  5.87E-07,  avg # of iterations =  2.0

     total cpu time spent up to now is       11.5 secs

     total energy              =     -90.39564567 Ry
     Harris-Foulkes estimate   =     -90.39566337 Ry
     estimated scf accuracy    <       0.00006181 Ry

     iteration #  6     ecut=    40.00 Ry     beta= 0.50
     Davidson diagonalization with overlap
     ethr =  1.93E-07,  avg # of iterations =  1.1

     total cpu time spent up to now is       12.0 secs

     total energy              =     -90.39565382 Ry
     Harris-Foulkes estimate   =     -90.39565544 Ry
     estimated scf accuracy    <       0.00000550 Ry

     iteration #  7     ecut=    40.00 Ry     beta= 0.50
     Davidson diagonalization with overlap
     ethr =  1.72E-08,  avg # of iterations =  2.0

     total cpu time spent up to now is       12.6 secs

     total energy              =     -90.39565468 Ry
     Harris-Foulkes estimate   =     -90.39565489 Ry
     estimated scf accuracy    <       0.00000094 Ry

     iteration #  8     ecut=    40.00 Ry     beta= 0.50
     Davidson diagonalization with overlap
     ethr =  2.94E-09,  avg # of iterations =  2.1

     total cpu time spent up to now is       13.2 secs

     total energy              =     -90.39565486 Ry
     Harris-Foulkes estimate   =     -90.39565489 Ry
     estimated scf accuracy    <       0.00000010 Ry

     iteration #  9     ecut=    40.00 Ry     beta= 0.50
     Davidson diagonalization with overlap
     ethr =  3.14E-10,  avg # of iterations =  2.1

     total cpu time spent up to now is       13.8 secs

     total energy              =     -90.39565488 Ry
     Harris-Foulkes estimate   =     -90.39565489 Ry
     estimated scf accuracy    <       0.00000002 Ry

     iteration # 10     ecut=    40.00 Ry     beta= 0.50
     Davidson diagonalization with overlap
     ethr =  6.18E-11,  avg # of iterations =  2.0

     total cpu time spent up to now is       14.4 secs

     End of self-consistent calculation

          k = 0.0000 0.0000 0.0000 (  2297 PWs)   bands (ev):

   -14.9836 -12.0365 -11.4105  -9.5075  -6.7823  -4.3288  -2.9606  -2.1400
     0.1249   0.5395   0.8395   1.4130   2.5341   2.7238   4.0104   5.9956
     7.3436   7.9554   9.0603   9.7898

          k =-0.0049-0.0182 0.4991 (  2293 PWs)   bands (ev):

   -14.2461 -11.3631 -10.7586  -8.9163  -6.3086  -3.7569  -3.0543  -2.7689
    -1.8541  -1.3776  -0.0401   0.7405   1.4011   3.0568   4.1770   5.4480
     6.2216   7.3406   8.1055   9.4633

          k =-0.0098-0.0363 0.9982 (  2285 PWs)   bands (ev):

   -12.1123  -9.6968  -9.2526  -8.0214  -6.6789  -5.8571  -4.9880  -3.8695
    -2.7233  -1.9242  -1.4339   0.2841   1.3819   3.0708   4.1202   4.5725
     5.2860   6.6847   7.5887   8.1551

          k = 0.0149-0.5857 0.0189 (  2302 PWs)   bands (ev):

   -14.3395 -13.6785 -11.1273  -7.4553  -6.8877  -6.0540  -2.0026  -1.7118
    -0.2694   0.1356   0.1665   1.3247   1.9312   2.8212   4.2792   6.4111
     7.3737   8.2569   9.5386  10.5873

          k = 0.0100-0.6039 0.5180 (  2300 PWs)   bands (ev):

   -13.6269 -12.9419 -10.4994  -6.9102  -6.5268  -5.5095  -2.8173  -1.9119
    -1.4418  -1.1681  -0.3727  -0.1246   0.6540   3.2928   4.0769   5.7846
     6.3826   7.7433   7.9427  10.2151

          k = 0.0051-0.6221 1.0171 (  2307 PWs)   bands (ev):

   -11.5919 -10.8602  -9.0743  -7.5822  -7.0395  -5.5007  -4.6634  -3.5878
    -3.3012  -1.5580  -0.8500  -0.5726   1.5724   3.1481   4.0048   4.2460
     4.9378   6.3194   7.8899   8.7020

          k =-0.5002 0.0137 0.0038 (  2296 PWs)   bands (ev):

   -14.9758 -12.0428 -11.4324  -9.5044  -6.8101  -4.2691  -2.8922  -2.0141
     0.1160   0.5184   0.8827   1.4754   1.9920   2.6146   4.1368   6.3939
     7.1186   7.8906   8.8547   9.4609

          k =-0.5051-0.0045 0.5029 (  2284 PWs)   bands (ev):

   -14.2385 -11.3687 -10.7801  -8.9114  -6.3328  -3.7182  -3.0443  -2.7271
    -1.7647  -1.3819  -0.0410   0.8185   1.5428   2.3819   4.2981   5.4688
     6.2860   7.5486   7.9638   9.1069

          k =-0.5100-0.0227 1.0020 (  2293 PWs)   bands (ev):

   -12.1055  -9.6954  -9.2704  -8.0185  -6.6884  -5.8611  -4.9848  -3.8828
    -2.7262  -1.9059  -1.4191   0.2891   1.6114   3.0751   3.8252   4.5434
     5.3283   6.6262   7.7178   8.0702

          k =-0.4853-0.5720 0.0226 (  2306 PWs)   bands (ev):

   -14.3305 -13.6736 -11.1732  -7.4846  -6.8317  -6.0449  -1.9377  -1.6489
    -0.1464   0.1487   0.2929   1.3168   1.9354   2.0986   4.5115   5.9001
     7.7667   8.2156   9.4753  10.3176

          k =-0.4902-0.5902 0.5218 (  2286 PWs)   bands (ev):

   -13.6183 -12.9372 -10.5420  -6.9353  -6.4854  -5.4945  -2.8183  -1.9121
    -1.4123  -1.1026  -0.3399  -0.1070   0.8708   2.6299   4.2675   5.6191
     6.3619   7.5490   8.2850   9.9466

          k =-0.4951-0.6084 1.0209 (  2299 PWs)   bands (ev):

   -11.5842 -10.8562  -9.0967  -7.5866  -7.0381  -5.5085  -4.6794  -3.5790
    -3.2866  -1.5623  -0.8380  -0.5514   1.7903   3.1825   3.6605   4.2991
     4.9663   6.3137   7.7396   8.8293

     the Fermi energy is     5.5868 ev

!    total energy              =     -90.39565488 Ry
     Harris-Foulkes estimate   =     -90.39565489 Ry
     estimated scf accuracy    <          2.2E-09 Ry

     The total energy is the sum of the following terms:

     one-electron contribution =     -78.05986691 Ry
     hartree contribution      =      53.24820420 Ry
     xc contribution           =     -27.56052258 Ry
     ewald contribution        =     -38.02302262 Ry
     smearing contrib. (-TS)   =      -0.00044697 Ry

     convergence has been achieved in  10 iterations

     Forces acting on atoms (cartesian axes, Ry/au):

     atom    1 type  1   force =     0.01594412    0.00646744   -0.00611598
     atom    2 type  1   force =     0.00318926   -0.00072577    0.00114082
     atom    3 type  1   force =    -0.00047856   -0.01904779    0.00054180
     atom    4 type  1   force =    -0.00327161   -0.00087712   -0.00124644
     atom    5 type  1   force =     0.00178036   -0.00242762   -0.00117756
     atom    6 type  1   force =    -0.01543708    0.00507895    0.00299733
     atom    7 type  1   force =     0.00325781   -0.00385318   -0.00153818
     atom    8 type  1   force =    -0.00498430    0.01538508    0.00539822

     Total force =     0.036385     Total SCF correction =     0.000084


     Computing stress (Cartesian axis) and pressure

          total   stress  (Ry/bohr**3)                   (kbar)     P=       -2.03
  -0.00000352   0.00002946   0.00001775           -0.52        4.33        2.61
   0.00002946   0.00002129   0.00003776            4.33        3.13        5.55
   0.00001775   0.00003776  -0.00005908            2.61        5.55       -8.69


     number of scf cycles    =   2
     number of bfgs steps    =   1

     enthalpy old            =     -90.3928680015 Ry
     enthalpy new            =     -90.3956183972 Ry

     CASE: enthalpy_new < enthalpy_old

     new trust radius        =       0.0329904516 bohr
     new conv_thr            =       0.0000000019 Ry

     new unit-cell volume =    535.72597 a.u.^3 (    79.38640 Ang^3 )
     density =      2.00805 g/cm^3

CELL_PARAMETERS (bohr)
  11.621074596   0.315172465   0.129505037
   0.286376129   9.960110019   0.383926372
   0.041064860   0.161583546   4.638623356

ATOMIC_POSITIONS (crystal)
C             0.5543656021        0.3548817677        0.8377770863
C             0.5504890311        0.6467742765        0.7757555240
C             0.6575982991        0.2389402263        0.3394062032
C             0.6530095305        0.7569741453        0.2669298390
C             0.3467706698        0.8350095292        0.6465343584
C             0.3289337877        0.2381287199        1.0022616527
C             0.3148783399        0.9744511529        0.1064641144
C             0.7379757398       -0.0086198179        0.2989912220



     Writing output data file ./pp.save/
     NEW-OLD atomic charge density approx. for the potential
     extrapolated charge   31.93967, renormalised to   32.00000

     total cpu time spent up to now is       14.5 secs

     Self-consistent Calculation

     iteration #  1     ecut=    40.00 Ry     beta= 0.50
     Davidson diagonalization with overlap
     ethr =  1.00E-06,  avg # of iterations =  5.0

     total cpu time spent up to now is       15.9 secs

     total energy              =     -90.39596567 Ry
     Harris-Foulkes estimate   =     -90.53015677 Ry
     estimated scf accuracy    <       0.00130390 Ry

     iteration #  2     ecut=    40.00 Ry     beta= 0.50
     Davidson diagonalization with overlap
     ethr =  4.07E-06,  avg # of iterations =  3.0

     total cpu time spent up to now is       16.8 secs

     total energy              =     -90.39629433 Ry
     Harris-Foulkes estimate   =     -90.39726346 Ry
     estimated scf accuracy    <       0.00342107 Ry

     iteration #  3     ecut=    40.00 Ry     beta= 0.50
     Davidson diagonalization with overlap
     ethr =  4.07E-06,  avg # of iterations =  2.0

     total cpu time spent up to now is       17.4 secs

     total energy              =     -90.39661285 Ry
     Harris-Foulkes estimate   =     -90.39676250 Ry
     estimated scf accuracy    <       0.00038786 Ry

     iteration #  4     ecut=    40.00 Ry     beta= 0.50
     Davidson diagonalization with overlap
     ethr =  1.21E-06,  avg # of iterations =  2.0

     total cpu time spent up to now is       18.0 secs

     total energy              =     -90.39665823 Ry
     Harris-Foulkes estimate   =     -90.39669829 Ry
     estimated scf accuracy    <       0.00013220 Ry

     iteration #  5     ecut=    40.00 Ry     beta= 0.50
     Davidson diagonalization with overlap
     ethr =  4.13E-07,  avg # of iterations =  2.0

     total cpu time spent up to now is       18.7 secs

     total energy              =     -90.39667633 Ry
     Harris-Foulkes estimate   =     -90.39668328 Ry
     estimated scf accuracy    <       0.00002014 Ry

     iteration #  6     ecut=    40.00 Ry     beta= 0.50
     Davidson diagonalization with overlap
     ethr =  6.29E-08,  avg # of iterations =  2.1

     total cpu time spent up to now is       19.3 secs

     total energy              =     -90.39667994 Ry
     Harris-Foulkes estimate   =     -90.39668083 Ry
     estimated scf accuracy    <       0.00000283 Ry

     iteration #  7     ecut=    40.00 Ry     beta= 0.50
     Davidson diagonalization with overlap
     ethr =  8.84E-09,  avg # of iterations =  2.0

     total cpu time spent up to now is       20.0 secs

     total energy              =     -90.39668021 Ry
     Harris-Foulkes estimate   =     -90.39668055 Ry
     estimated scf accuracy    <       0.00000105 Ry

     iteration #  8     ecut=    40.00 Ry     beta= 0.50
     Davidson diagonalization with overlap
     ethr =  3.28E-09,  avg # of iterations =  2.0

     total cpu time spent up to now is       20.7 secs

     total energy              =     -90.39668040 Ry
     Harris-Foulkes estimate   =     -90.39668042 Ry
     estimated scf accuracy    <       0.00000010 Ry

     iteration #  9     ecut=    40.00 Ry     beta= 0.50
     Davidson diagonalization with overlap
     ethr =  3.26E-10,  avg # of iterations =  2.2

     total cpu time spent up to now is       21.5 secs

     total energy              =     -90.39668042 Ry
     Harris-Foulkes estimate   =     -90.39668042 Ry
     estimated scf accuracy    <       0.00000002 Ry

     iteration # 10     ecut=    40.00 Ry     beta= 0.50
     Davidson diagonalization with overlap
     ethr =  5.33E-11,  avg # of iterations =  2.0

     total cpu time spent up to now is       22.3 secs

     total energy              =     -90.39668042 Ry
     Harris-Foulkes estimate   =     -90.39668042 Ry
     estimated scf accuracy    <          3.1E-09 Ry

     iteration # 11     ecut=    40.00 Ry     beta= 0.50
     Davidson diagonalization with overlap
     ethr =  9.79E-12,  avg # of iterations =  2.0

     total cpu time spent up to now is       23.1 secs

     End of self-consistent calculation

          k = 0.0000 0.0000 0.0000 (  2297 PWs)   bands (ev):

   -14.9925 -12.0854 -11.3798  -9.5341  -6.7816  -4.2921  -2.9482  -2.1671
     0.1857   0.5712   0.8633   1.3553   2.5846   2.7323   4.0040   5.9689
     7.4137   8.0463   9.1614   9.8295

          k =-0.0051-0.0192 0.5015 (  2293 PWs)   bands (ev):

   -14.2472 -11.4072 -10.7192  -8.9273  -6.2950  -3.6995  -3.0118  -2.7510
    -1.8739  -1.3621  -0.0142   0.7908   1.3405   3.0780   4.1654   5.4997
     6.2365   7.3741   8.1327   9.5207

          k =-0.0101-0.0384 1.0030 (  2285 PWs)   bands (ev):

   -12.0875  -9.6697  -9.2365  -7.9711  -6.6813  -5.8451  -4.9635  -3.8871
    -2.7117  -1.8987  -1.4293   0.3472   1.4122   3.0957   4.1314   4.5573
     5.2956   6.6901   7.5933   8.1987

          k = 0.0156-0.5843 0.0202 (  2302 PWs)   bands (ev):

   -14.3644 -13.6757 -11.1381  -7.4343  -6.9027  -6.0871  -2.0440  -1.6538
    -0.2496   0.1131   0.2347   1.3461   2.0010   2.8324   4.2144   6.4742
     7.3830   8.4016   9.6198  10.6329

          k = 0.0106-0.6035 0.5217 (  2300 PWs)   bands (ev):

   -13.6453 -12.9303 -10.5011  -6.8762  -6.5377  -5.5191  -2.7847  -1.8762
    -1.4006  -1.1636  -0.3565  -0.1160   0.6514   3.3082   4.0462   5.8794
     6.4086   7.7725   7.9452  10.2825

          k = 0.0055-0.6226 1.0232 (  2307 PWs)   bands (ev):

   -11.5860 -10.8184  -9.0333  -7.5651  -7.0064  -5.4856  -4.6521  -3.6406
    -3.2904  -1.5529  -0.8398  -0.4839   1.5959   3.1563   4.0303   4.2765
     4.9237   6.3241   7.9100   8.7400

          k =-0.5001 0.0142 0.0039 (  2296 PWs)   bands (ev):

   -14.9847 -12.0926 -11.4000  -9.5319  -6.8097  -4.2280  -2.8862  -2.0433
     0.1784   0.5453   0.9116   1.4321   2.0146   2.6414   4.1220   6.3667
     7.1605   7.9948   8.9355   9.5301

          k =-0.5052-0.0050 0.5054 (  2284 PWs)   bands (ev):

   -14.2397 -11.4137 -10.7391  -8.9233  -6.3194  -3.6564  -3.0007  -2.7140
    -1.7878  -1.3667  -0.0156   0.8712   1.4821   2.4065   4.2814   5.5329
     6.2943   7.5632   7.9897   9.1691

          k =-0.5103-0.0241 1.0069 (  2293 PWs)   bands (ev):

   -12.0807  -9.6688  -9.2533  -7.9685  -6.6910  -5.8483  -4.9614  -3.9000
    -2.7147  -1.8823  -1.4107   0.3493   1.6404   3.0998   3.8405   4.5312
     5.3379   6.6286   7.7315   8.1022

          k =-0.4845-0.5700 0.0241 (  2306 PWs)   bands (ev):

   -14.3558 -13.6705 -11.1835  -7.4645  -6.8475  -6.0785  -1.9649  -1.6012
    -0.1311   0.2101   0.2784   1.3379   2.0043   2.1069   4.4421   5.9686
     7.7507   8.3655   9.5610  10.3704

          k =-0.4896-0.5892 0.5256 (  2286 PWs)   bands (ev):

   -13.6371 -12.9253 -10.5433  -6.9022  -6.4970  -5.5042  -2.7852  -1.8731
    -1.3609  -1.1101  -0.3226  -0.1003   0.8671   2.6416   4.2410   5.7073
     6.3911   7.5773   8.2752  10.0201

          k =-0.4947-0.6084 1.0271 (  2299 PWs)   bands (ev):

   -11.5786 -10.8141  -9.0560  -7.5693  -7.0043  -5.4939  -4.6675  -3.6327
    -3.2764  -1.5558  -0.8281  -0.4614   1.8085   3.1882   3.6947   4.3213
     4.9612   6.3147   7.7726   8.8518

     the Fermi energy is     5.6486 ev

!    total energy              =     -90.39668042 Ry
     Harris-Foulkes estimate   =     -90.39668042 Ry
     estimated scf accuracy    <          3.1E-10 Ry

     The total energy is the sum of the following terms:

     one-electron contribution =     -78.05873072 Ry
     hartree contribution      =      53.26765059 Ry
     xc contribution           =     -27.56891135 Ry
     ewald contribution        =     -38.03649982 Ry
     smearing contrib. (-TS)   =      -0.00018913 Ry

     convergence has been achieved in  11 iterations

     Forces acting on atoms (cartesian axes, Ry/au):

     atom    1 type  1   force =     0.00273749   -0.00042347   -0.00424825
     atom    2 type  1   force =     0.00855982   -0.00156056    0.00015281
     atom    3 type  1   force =    -0.00372275   -0.00087446    0.00210440
     atom    4 type  1   force =    -0.00026824    0.00817401    0.00252320
     atom    5 type  1   force =     0.00451612   -0.00067064   -0.00404437
     atom    6 type  1   force =    -0.00996118    0.00515683    0.00007734
     atom    7 type  1   force =     0.00210885    0.00200145    0.00122307
     atom    8 type  1   force =    -0.00397012   -0.01180317    0.00221180

     Total force =     0.022950     Total SCF correction =     0.000028


     Computing stress (Cartesian axis) and pressure

          total   stress  (Ry/bohr**3)                   (kbar)     P=        1.81
  -0.00003547  -0.00005720   0.00002872           -5.22       -8.41        4.22
  -0.00005720  -0.00001299  -0.00001014           -8.41       -1.91       -1.49
   0.00002872  -0.00001014   0.00008529            4.22       -1.49       12.55


     number of scf cycles    =   3
     number of bfgs steps    =   2

     enthalpy old            =     -90.3956183972 Ry
     enthalpy new            =     -90.3966440035 Ry

     CASE: enthalpy_new < enthalpy_old

     new trust radius        =       0.0225823530 bohr
     new conv_thr            =       0.0000000010 Ry

     new unit-cell volume =    535.84409 a.u.^3 (    79.40390 Ang^3 )
     density =      2.00761 g/cm^3

CELL_PARAMETERS (bohr)
  11.611274773   0.304281654   0.140027859
   0.276989024   9.967699904   0.390395252
   0.045146232   0.164620368   4.640083966

ATOMIC_POSITIONS (crystal)
C             0.5557360500        0.3551346164        0.8362397814
C             0.5513328153        0.6464874727        0.7760042782
C             0.6570371430        0.2381812111        0.3397955795
C             0.6528927813        0.7579775146        0.2670563788
C             0.3472502248        0.8346988536        0.6458775878
C             0.3271060873        0.2389766126        1.0028011726
C             0.3152391045        0.9744599546        0.1061040937
C             0.7374267939       -0.0093762355        0.3002411280



     Writing output data file ./pp.save/
     NEW-OLD atomic charge density approx. for the potential
     extrapolated charge   32.00705, renormalised to   32.00000

     total cpu time spent up to now is       23.1 secs

     Self-consistent Calculation

     iteration #  1     ecut=    40.00 Ry     beta= 0.50
     Davidson diagonalization with overlap
     ethr =  1.00E-06,  avg # of iterations =  4.2

     total cpu time spent up to now is       24.7 secs

     total energy              =     -90.39702662 Ry
     Harris-Foulkes estimate   =     -90.38173340 Ry
     estimated scf accuracy    <       0.00038888 Ry

     iteration #  2     ecut=    40.00 Ry     beta= 0.50
     Davidson diagonalization with overlap
     ethr =  1.22E-06,  avg # of iterations =  2.2

     total cpu time spent up to now is       25.6 secs

     total energy              =     -90.39703241 Ry
     Harris-Foulkes estimate   =     -90.39722100 Ry
     estimated scf accuracy    <       0.00052912 Ry

     iteration #  3     ecut=    40.00 Ry     beta= 0.50
     Davidson diagonalization with overlap
     ethr =  1.22E-06,  avg # of iterations =  2.0

     total cpu time spent up to now is       26.5 secs

     total energy              =     -90.39711468 Ry
     Harris-Foulkes estimate   =     -90.39715668 Ry
     estimated scf accuracy    <       0.00013755 Ry

     iteration #  4     ecut=    40.00 Ry     beta= 0.50
     Davidson diagonalization with overlap
     ethr =  4.30E-07,  avg # of iterations =  1.3

     total cpu time spent up to now is       27.1 secs

     total energy              =     -90.39713565 Ry
     Harris-Foulkes estimate   =     -90.39714334 Ry
     estimated scf accuracy    <       0.00002667 Ry

     iteration #  5     ecut=    40.00 Ry     beta= 0.50
     Davidson diagonalization with overlap
     ethr =  8.34E-08,  avg # of iterations =  1.4

     total cpu time spent up to now is       27.8 secs

     total energy              =     -90.39713954 Ry
     Harris-Foulkes estimate   =     -90.39713984 Ry
     estimated scf accuracy    <       0.00000119 Ry

     iteration #  6     ecut=    40.00 Ry     beta= 0.50
     Davidson diagonalization with overlap
     ethr =  3.73E-09,  avg # of iterations =  2.2

     total cpu time spent up to now is       28.8 secs

     total energy              =     -90.39713985 Ry
     Harris-Foulkes estimate   =     -90.39713986 Ry
     estimated scf accuracy    <       0.00000018 Ry

     iteration #  7     ecut=    40.00 Ry     beta= 0.50
     Davidson diagonalization with overlap
     ethr =  5.63E-10,  avg # of iterations =  2.0

     total cpu time spent up to now is       29.8 secs

     total energy              =     -90.39713988 Ry
     Harris-Foulkes estimate   =     -90.39713989 Ry
     estimated scf accuracy    <       0.00000007 Ry

     iteration #  8     ecut=    40.00 Ry     beta= 0.50
     Davidson diagonalization with overlap
     ethr =  2.09E-10,  avg # of iterations =  2.0

     total cpu time spent up to now is       30.7 secs

     total energy              =     -90.39713989 Ry
     Harris-Foulkes estimate   =     -90.39713989 Ry
     estimated scf accuracy    <       0.00000002 Ry

     iteration #  9     ecut=    40.00 Ry     beta= 0.50
     Davidson diagonalization with overlap
     ethr =  5.95E-11,  avg # of iterations =  2.0

     total cpu time spent up to now is       31.7 secs

     total energy              =     -90.39713989 Ry
     Harris-Foulkes estimate   =     -90.39713989 Ry
     estimated scf accuracy    <          2.4E-09 Ry

     iteration # 10     ecut=    40.00 Ry     beta= 0.50
     Davidson diagonalization with overlap
     ethr =  7.39E-12,  avg # of iterations =  2.0

     total cpu time spent up to now is       32.7 secs

     End of self-consistent calculation

          k = 0.0000 0.0000 0.0000 (  2297 PWs)   bands (ev):

   -14.9956 -12.0714 -11.3733  -9.5627  -6.7748  -4.2610  -2.9554  -2.1598
     0.1795   0.5893   0.8285   1.3363   2.5578   2.7371   3.9800   5.9900
     7.4136   8.0396   9.1787   9.8475

          k =-0.0055-0.0195 0.5014 (  2293 PWs)   bands (ev):

   -14.2508 -11.3942 -10.7134  -8.9557  -6.2894  -3.6681  -3.0166  -2.7638
    -1.8782  -1.3637  -0.0285   0.8011   1.3134   3.0928   4.1395   5.5092
     6.2404   7.3766   8.1286   9.5422

          k =-0.0111-0.0390 1.0027 (  2285 PWs)   bands (ev):

   -12.0916  -9.6700  -9.2271  -7.9837  -6.6761  -5.8732  -4.9617  -3.8875
    -2.7295  -1.8923  -1.4233   0.3852   1.3993   3.1115   4.1404   4.5471
     5.2824   6.6873   7.6028   8.1914

          k = 0.0151-0.5838 0.0206 (  2302 PWs)   bands (ev):

   -14.3791 -13.6568 -11.1378  -7.4148  -6.8997  -6.1236  -2.0597  -1.6047
    -0.2435   0.1083   0.2445   1.3219   1.9639   2.8379   4.1596   6.5222
     7.3905   8.4296   9.6091  10.6495

          k = 0.0095-0.6033 0.5219 (  2300 PWs)   bands (ev):

   -13.6604 -12.9115 -10.5018  -6.8570  -6.5454  -5.5484  -2.7916  -1.8759
    -1.3897  -1.1480  -0.3550  -0.1364   0.6509   3.3104   4.0135   5.8983
     6.4215   7.7736   7.9452  10.3017

          k = 0.0040-0.6228 1.0233 (  2307 PWs)   bands (ev):

   -11.6037 -10.7964  -9.0402  -7.5730  -7.0066  -5.4900  -4.6524  -3.6531
    -3.3091  -1.5637  -0.8385  -0.4293   1.5780   3.1734   4.0320   4.2777
     4.9157   6.3207   7.8950   8.7609

          k =-0.5005 0.0137 0.0044 (  2296 PWs)   bands (ev):

   -14.9878 -12.0782 -11.3942  -9.5605  -6.8033  -4.1936  -2.8971  -2.0369
     0.1729   0.5718   0.8816   1.4100   2.0182   2.6034   4.1004   6.3765
     7.1626   7.9914   8.9708   9.5359

          k =-0.5061-0.0057 0.5057 (  2284 PWs)   bands (ev):

   -14.2432 -11.4002 -10.7341  -8.9516  -6.3143  -3.6227  -3.0048  -2.7289
    -1.7945  -1.3682  -0.0302   0.8960   1.4458   2.4147   4.2587   5.5461
     6.2866   7.5674   7.9853   9.1962

          k =-0.5116-0.0252 1.0071 (  2293 PWs)   bands (ev):

   -12.0848  -9.6687  -9.2443  -7.9815  -6.6855  -5.8760  -4.9602  -3.9006
    -2.7327  -1.8767  -1.4026   0.3868   1.6255   3.1145   3.8528   4.5234
     5.3249   6.6277   7.7236   8.1082

          k =-0.4855-0.5701 0.0249 (  2306 PWs)   bands (ev):

   -14.3705 -13.6514 -11.1834  -7.4458  -6.8451  -6.1148  -1.9725  -1.5537
    -0.1262   0.2193   0.2717   1.3138   1.9668   2.1075   4.3846   6.0036
     7.7681   8.3952   9.5551  10.3896

          k =-0.4910-0.5896 0.5263 (  2286 PWs)   bands (ev):

   -13.6522 -12.9063 -10.5441  -6.8840  -6.5054  -5.5331  -2.7915  -1.8717
    -1.3425  -1.0985  -0.3221  -0.1208   0.8648   2.6404   4.2094   5.7284
     6.3965   7.5724   8.2794  10.0464

          k =-0.4966-0.6091 1.0277 (  2299 PWs)   bands (ev):

   -11.5964 -10.7918  -9.0629  -7.5775  -7.0045  -5.4987  -4.6675  -3.6462
    -3.2949  -1.5659  -0.8273  -0.4049   1.7886   3.2077   3.6932   4.3257
     4.9550   6.3104   7.7521   8.8761

     the Fermi energy is     5.6617 ev

!    total energy              =     -90.39713989 Ry
     Harris-Foulkes estimate   =     -90.39713989 Ry
     estimated scf accuracy    <          2.0E-10 Ry

     The total energy is the sum of the following terms:

     one-electron contribution =     -77.80293880 Ry
     hartree contribution      =      53.13438179 Ry
     xc contribution           =     -27.56454206 Ry
     ewald contribution        =     -38.16395697 Ry
     smearing contrib. (-TS)   =      -0.00008385 Ry

     convergence has been achieved in  10 iterations

     Forces acting on atoms (cartesian axes, Ry/au):

     atom    1 type  1   force =    -0.00098040   -0.00393709    0.00153510
     atom    2 type  1   force =     0.00658018   -0.00126391    0.00099514
     atom    3 type  1   force =    -0.00167366    0.00155143   -0.00282271
     atom    4 type  1   force =    -0.00299080   -0.00488700    0.00027060
     atom    5 type  1   force =     0.00307230    0.00333804    0.00086956
     atom    6 type  1   force =    -0.00597157    0.00312894    0.00012375
     atom    7 type  1   force =     0.00089396   -0.00249738   -0.00259191
     atom    8 type  1   force =     0.00106997    0.00456697    0.00162048

     Total force =     0.014696     Total SCF correction =     0.000020


     Computing stress (Cartesian axis) and pressure

          total   stress  (Ry/bohr**3)                   (kbar)     P=        1.06
  -0.00002105   0.00000111   0.00000728           -3.10        0.16        1.07
   0.00000111   0.00000461  -0.00003231            0.16        0.68       -4.75
   0.00000728  -0.00003231   0.00003807            1.07       -4.75        5.60


     number of scf cycles    =   4
     number of bfgs steps    =   3

     enthalpy old            =     -90.3966440035 Ry
     enthalpy new            =     -90.3971034639 Ry

     CASE: enthalpy_new < enthalpy_old

     new trust radius        =       0.0185741927 bohr
     new conv_thr            =       0.0000000005 Ry

     new unit-cell volume =    536.21326 a.u.^3 (    79.45861 Ang^3 )
     density =      2.00622 g/cm^3

CELL_PARAMETERS (bohr)
  11.600224680   0.300308238   0.146841214
   0.273464231   9.974105331   0.385410515
   0.047876999   0.162065617   4.644500215

ATOMIC_POSITIONS (crystal)
C             0.5563674175        0.3547772615        0.8359734799
C             0.5523555594        0.6461752128        0.7763785085
C             0.6565662469        0.2380939634        0.3392227563
C             0.6525668086        0.7578895260        0.2671613781
C             0.3477602627        0.8349181555        0.6458484956
C             0.3256204272        0.2397456030        1.0031174352
C             0.3155065973        0.9741688326        0.1052170285
C             0.7372776803       -0.0092285548        0.3012009179



     Writing output data file ./pp.save/
     NEW-OLD atomic charge density approx. for the potential
     extrapolated charge   32.02203, renormalised to   32.00000

     total cpu time spent up to now is       32.8 secs

     Self-consistent Calculation

     iteration #  1     ecut=    40.00 Ry     beta= 0.50
     Davidson diagonalization with overlap
     ethr =  1.00E-06,  avg # of iterations =  4.0

     total cpu time spent up to now is       34.8 secs

     total energy              =     -90.39724003 Ry
     Harris-Foulkes estimate   =     -90.34921782 Ry
     estimated scf accuracy    <       0.00024420 Ry

     iteration #  2     ecut=    40.00 Ry     beta= 0.50
     Davidson diagonalization with overlap
     ethr =  7.63E-07,  avg # of iterations =  2.2

     total cpu time spent up to now is       35.9 secs

     total energy              =     -90.39731775 Ry
     Harris-Foulkes estimate   =     -90.39744173 Ry
     estimated scf accuracy    <       0.00035982 Ry

     iteration #  3     ecut=    40.00 Ry     beta= 0.50
     Davidson diagonalization with overlap
     ethr =  7.63E-07,  avg # of iterations =  2.0

     total cpu time spent up to now is       37.0 secs

     total energy              =     -90.39735728 Ry
     Harris-Foulkes estimate   =     -90.39737807 Ry
     estimated scf accuracy    <       0.00005564 Ry

     iteration #  4     ecut=    40.00 Ry     beta= 0.50
     Davidson diagonalization with overlap
     ethr =  1.74E-07,  avg # of iterations =  2.0

     total cpu time spent up to now is       38.0 secs

     total energy              =     -90.39736479 Ry
     Harris-Foulkes estimate   =     -90.39737155 Ry
     estimated scf accuracy    <       0.00002206 Ry

     iteration #  5     ecut=    40.00 Ry     beta= 0.50
     Davidson diagonalization with overlap
     ethr =  6.89E-08,  avg # of iterations =  2.0

     total cpu time spent up to now is       39.0 secs

     total energy              =     -90.39736816 Ry
     Harris-Foulkes estimate   =     -90.39736947 Ry
     estimated scf accuracy    <       0.00000434 Ry

     iteration #  6     ecut=    40.00 Ry     beta= 0.50
     Davidson diagonalization with overlap
     ethr =  1.36E-08,  avg # of iterations =  1.8

     total cpu time spent up to now is       40.0 secs

     total energy              =     -90.39736887 Ry
     Harris-Foulkes estimate   =     -90.39736899 Ry
     estimated scf accuracy    <       0.00000045 Ry

     iteration #  7     ecut=    40.00 Ry     beta= 0.50
     Davidson diagonalization with overlap
     ethr =  1.42E-09,  avg # of iterations =  2.0

     total cpu time spent up to now is       41.2 secs

     total energy              =     -90.39736893 Ry
     Harris-Foulkes estimate   =     -90.39736900 Ry
     estimated scf accuracy    <       0.00000022 Ry

     iteration #  8     ecut=    40.00 Ry     beta= 0.50
     Davidson diagonalization with overlap
     ethr =  6.90E-10,  avg # of iterations =  2.0

     total cpu time spent up to now is       42.3 secs

     total energy              =     -90.39736897 Ry
     Harris-Foulkes estimate   =     -90.39736897 Ry
     estimated scf accuracy    <          8.9E-09 Ry

     iteration #  9     ecut=    40.00 Ry     beta= 0.50
     Davidson diagonalization with overlap
     ethr =  2.78E-11,  avg # of iterations =  2.1

     total cpu time spent up to now is       43.5 secs

     total energy              =     -90.39736897 Ry
     Harris-Foulkes estimate   =     -90.39736897 Ry
     estimated scf accuracy    <          1.7E-09 Ry

     iteration # 10     ecut=    40.00 Ry     beta= 0.50
     Davidson diagonalization with overlap
     ethr =  5.22E-12,  avg # of iterations =  2.0

     total cpu time spent up to now is       44.7 secs

     End of self-consistent calculation

          k = 0.0000 0.0000 0.0000 (  2297 PWs)   bands (ev):

   -15.0008 -12.0748 -11.3675  -9.5581  -6.7617  -4.2451  -2.9367  -2.1428
     0.1257   0.5943   0.7992   1.3154   2.4846   2.7496   3.9684   5.9865
     7.4163   8.0360   9.1776   9.8589

          k =-0.0058-0.0192 0.5009 (  2293 PWs)   bands (ev):

   -14.2577 -11.3989 -10.7091  -8.9542  -6.2775  -3.6539  -3.0474  -2.7555
    -1.8696  -1.3933  -0.0822   0.8071   1.3133   3.1065   4.1214   5.5067
     6.2277   7.3776   8.1287   9.5431

          k =-0.0117-0.0384 1.0017 (  2285 PWs)   bands (ev):

   -12.1029  -9.6773  -9.2306  -7.9988  -6.6836  -5.8896  -4.9738  -3.8945
    -2.7257  -1.8927  -1.4248   0.4193   1.3999   3.1180   4.1408   4.5453
     5.2598   6.6803   7.5766   8.1829

          k = 0.0148-0.5834 0.0202 (  2302 PWs)   bands (ev):

   -14.3913 -13.6519 -11.1295  -7.3978  -6.8920  -6.1252  -2.0729  -1.5717
    -0.2313   0.1169   0.2170   1.2626   1.8886   2.8564   4.1378   6.5360
     7.3898   8.4331   9.5895  10.6581

          k = 0.0090-0.6026 0.5211 (  2300 PWs)   bands (ev):

   -13.6734 -12.9093 -10.4954  -6.8415  -6.5400  -5.5524  -2.8287  -1.8924
    -1.3954  -1.1452  -0.3580  -0.1554   0.6514   3.3225   3.9953   5.9018
     6.4134   7.7640   7.9491  10.2955

          k = 0.0032-0.6218 1.0219 (  2307 PWs)   bands (ev):

   -11.6176 -10.8009  -9.0471  -7.5906  -7.0099  -5.5026  -4.6512  -3.6639
    -3.3322  -1.5595  -0.8232  -0.3958   1.5721   3.1740   4.0250   4.2620
     4.9093   6.3086   7.8805   8.7458

          k =-0.5010 0.0136 0.0047 (  2296 PWs)   bands (ev):

   -14.9929 -12.0813 -11.3887  -9.5563  -6.7907  -4.1755  -2.8799  -2.0189
     0.1198   0.5780   0.8486   1.3936   2.0287   2.5277   4.0879   6.3621
     7.1691   7.9905   8.9849   9.5350

          k =-0.5069-0.0056 0.5056 (  2284 PWs)   bands (ev):

   -14.2501 -11.4046 -10.7299  -8.9506  -6.3027  -3.6077  -3.0352  -2.7213
    -1.7859  -1.3978  -0.0836   0.9091   1.4397   2.4262   4.2405   5.5463
     6.2706   7.5622   7.9881   9.1995

          k =-0.5127-0.0248 1.0064 (  2293 PWs)   bands (ev):

   -12.0961  -9.6759  -9.2474  -7.9968  -6.6935  -5.8923  -4.9725  -3.9080
    -2.7289  -1.8774  -1.4027   0.4210   1.6263   3.1190   3.8567   4.5227
     5.3037   6.6170   7.7013   8.0942

          k =-0.4862-0.5699 0.0249 (  2306 PWs)   bands (ev):

   -14.3828 -13.6463 -11.1753  -7.4292  -6.8377  -6.1165  -1.9818  -1.5203
    -0.1037   0.1785   0.2826   1.2546   1.8913   2.1203   4.3593   6.0193
     7.7647   8.3989   9.5387  10.3989

          k =-0.4920-0.5891 0.5258 (  2286 PWs)   bands (ev):

   -13.6653 -12.9039 -10.5380  -6.8689  -6.5003  -5.5373  -2.8285  -1.8884
    -1.3421  -1.1000  -0.3267  -0.1363   0.8650   2.6478   4.1911   5.7338
     6.3883   7.5634   8.2775  10.0434

          k =-0.4979-0.6082 1.0266 (  2299 PWs)   bands (ev):

   -11.6104 -10.7962  -9.0697  -7.5952  -7.0080  -5.5117  -4.6664  -3.6570
    -3.3183  -1.5616  -0.8118  -0.3700   1.7821   3.2088   3.6878   4.3126
     4.9490   6.2968   7.7321   8.8615

     the Fermi energy is     5.6621 ev

!    total energy              =     -90.39736897 Ry
     Harris-Foulkes estimate   =     -90.39736897 Ry
     estimated scf accuracy    <          9.6E-11 Ry

     The total energy is the sum of the following terms:

     one-electron contribution =     -77.47459012 Ry
     hartree contribution      =      52.95843964 Ry
     xc contribution           =     -27.55534567 Ry
     ewald contribution        =     -38.32584111 Ry
     smearing contrib. (-TS)   =      -0.00003170 Ry

     convergence has been achieved in  10 iterations

     Forces acting on atoms (cartesian axes, Ry/au):

     atom    1 type  1   force =    -0.00342727   -0.00071889    0.00148767
     atom    2 type  1   force =     0.00206968   -0.00331802    0.00106879
     atom    3 type  1   force =     0.00036596    0.00029751   -0.00197936
     atom    4 type  1   force =     0.00144355   -0.00145731    0.00051414
     atom    5 type  1   force =     0.00325342    0.00152780   -0.00228748
     atom    6 type  1   force =    -0.00476160   -0.00116894    0.00057140
     atom    7 type  1   force =    -0.00018038    0.00199080    0.00047071
     atom    8 type  1   force =     0.00123663    0.00284705    0.00015412

     Total force =     0.009794     Total SCF correction =     0.000016


     Computing stress (Cartesian axis) and pressure

          total   stress  (Ry/bohr**3)                   (kbar)     P=       -1.91
  -0.00000733   0.00000516   0.00000019           -1.08        0.76        0.03
   0.00000516  -0.00002081  -0.00001450            0.76       -3.06       -2.13
   0.00000019  -0.00001450  -0.00001091            0.03       -2.13       -1.60


     number of scf cycles    =   5
     number of bfgs steps    =   4

     enthalpy old            =     -90.3971034639 Ry
     enthalpy new            =     -90.3973325177 Ry

     CASE: enthalpy_new < enthalpy_old

     new trust radius        =       0.0168813085 bohr
     new conv_thr            =       0.0000000002 Ry

     new unit-cell volume =    535.69410 a.u.^3 (    79.38168 Ang^3 )
     density =      2.00817 g/cm^3

CELL_PARAMETERS (bohr)
  11.591067685   0.298404522   0.151080216
   0.271899886   9.970860638   0.378945462
   0.049636546   0.158832022   4.644957150

ATOMIC_POSITIONS (crystal)
C             0.5563990047        0.3545387333        0.8361289699
C             0.5531728143        0.6455185590        0.7769070571
C             0.6563146608        0.2380729432        0.3384382746
C             0.6525956940        0.7577994324        0.2673902662
C             0.3484327947        0.8351864379        0.6450641261
C             0.3241806968        0.2400366708        1.0035053771
C             0.3156390169        0.9743398494        0.1048988846
C             0.7372863178       -0.0089526260        0.3017870445



     Writing output data file ./pp.save/
     NEW-OLD atomic charge density approx. for the potential
     extrapolated charge   31.96899, renormalised to   32.00000

     total cpu time spent up to now is       44.8 secs

     Self-consistent Calculation

     iteration #  1     ecut=    40.00 Ry     beta= 0.50
     Davidson diagonalization with overlap
     ethr =  1.00E-06,  avg # of iterations =  4.0

     total cpu time spent up to now is       47.0 secs

     total energy              =     -90.39734225 Ry
     Harris-Foulkes estimate   =     -90.46514042 Ry
     estimated scf accuracy    <       0.00017967 Ry

     iteration #  2     ecut=    40.00 Ry     beta= 0.50
     Davidson diagonalization with overlap
     ethr =  5.61E-07,  avg # of iterations =  3.0

     total cpu time spent up to now is       48.7 secs

     total energy              =     -90.39745025 Ry
     Harris-Foulkes estimate   =     -90.39761121 Ry
     estimated scf accuracy    <       0.00059442 Ry

     iteration #  3     ecut=    40.00 Ry     beta= 0.50
     Davidson diagonalization with overlap
     ethr =  5.61E-07,  avg # of iterations =  2.0

     total cpu time spent up to now is       50.0 secs

     total energy              =     -90.39749408 Ry
     Harris-Foulkes estimate   =     -90.39751269 Ry
     estimated scf accuracy    <       0.00006606 Ry

     iteration #  4     ecut=    40.00 Ry     beta= 0.50
     Davidson diagonalization with overlap
     ethr =  2.06E-07,  avg # of iterations =  1.2

     total cpu time spent up to now is       51.0 secs

     total energy              =     -90.39749179 Ry
     Harris-Foulkes estimate   =     -90.39750210 Ry
     estimated scf accuracy    <       0.00003348 Ry

     iteration #  5     ecut=    40.00 Ry     beta= 0.50
     Davidson diagonalization with overlap
     ethr =  1.05E-07,  avg # of iterations =  2.0

     total cpu time spent up to now is       52.3 secs

     total energy              =     -90.39749465 Ry
     Harris-Foulkes estimate   =     -90.39749632 Ry
     estimated scf accuracy    <       0.00000461 Ry

     iteration #  6     ecut=    40.00 Ry     beta= 0.50
     Davidson diagonalization with overlap
     ethr =  1.44E-08,  avg # of iterations =  2.2

     total cpu time spent up to now is       53.7 secs

     total energy              =     -90.39749573 Ry
     Harris-Foulkes estimate   =     -90.39749589 Ry
     estimated scf accuracy    <       0.00000069 Ry

     iteration #  7     ecut=    40.00 Ry     beta= 0.50
     Davidson diagonalization with overlap
     ethr =  2.16E-09,  avg # of iterations =  2.0

     total cpu time spent up to now is       55.1 secs

     total energy              =     -90.39749572 Ry
     Harris-Foulkes estimate   =     -90.39749587 Ry
     estimated scf accuracy    <       0.00000035 Ry

     iteration #  8     ecut=    40.00 Ry     beta= 0.50
     Davidson diagonalization with overlap
     ethr =  1.10E-09,  avg # of iterations =  2.0

     total cpu time spent up to now is       56.5 secs

     total energy              =     -90.39749579 Ry
     Harris-Foulkes estimate   =     -90.39749580 Ry
     estimated scf accuracy    <       0.00000002 Ry

     iteration #  9     ecut=    40.00 Ry     beta= 0.50
     Davidson diagonalization with overlap
     ethr =  6.36E-11,  avg # of iterations =  2.0

     total cpu time spent up to now is       58.1 secs

     total energy              =     -90.39749580 Ry
     Harris-Foulkes estimate   =     -90.39749580 Ry
     estimated scf accuracy    <          2.6E-09 Ry

     iteration # 10     ecut=    40.00 Ry     beta= 0.50
     Davidson diagonalization with overlap
     ethr =  8.20E-12,  avg # of iterations =  2.3

     total cpu time spent up to now is       59.8 secs

     total energy              =     -90.39749580 Ry
     Harris-Foulkes estimate   =     -90.39749580 Ry
     estimated scf accuracy    <          5.3E-10 Ry

     iteration # 11     ecut=    40.00 Ry     beta= 0.50
     Davidson diagonalization with overlap
     ethr =  1.67E-12,  avg # of iterations =  1.8

     total cpu time spent up to now is       61.2 secs

     End of self-consistent calculation

          k = 0.0000 0.0000 0.0000 (  2297 PWs)   bands (ev):

   -14.9989 -12.0607 -11.3660  -9.5565  -6.7485  -4.2286  -2.9196  -2.1283
     0.1196   0.5993   0.7960   1.3184   2.4706   2.7637   3.9722   6.0048
     7.4304   8.0465   9.2008   9.8830

          k =-0.0060-0.0189 0.5008 (  2293 PWs)   bands (ev):

   -14.2562 -11.3847 -10.7071  -8.9542  -6.2642  -3.6363  -3.0509  -2.7437
    -1.8563  -1.3932  -0.0936   0.8143   1.3301   3.1203   4.1216   5.5169
     6.2400   7.3977   8.1402   9.5625

          k =-0.0121-0.0377 1.0016 (  2285 PWs)   bands (ev):

   -12.1018  -9.6665  -9.2238  -8.0054  -6.6780  -5.8803  -4.9798  -3.8855
    -2.7210  -1.8895  -1.4112   0.4557   1.4094   3.1364   4.1521   4.5519
     5.2625   6.6913   7.5757   8.1952

          k = 0.0148-0.5836 0.0198 (  2302 PWs)   bands (ev):

   -14.3905 -13.6447 -11.1218  -7.3845  -6.8760  -6.1284  -2.0637  -1.5457
    -0.2231   0.1253   0.2252   1.2520   1.8701   2.8732   4.1272   6.5598
     7.4034   8.4540   9.6045  10.6922

          k = 0.0087-0.6024 0.5206 (  2300 PWs)   bands (ev):

   -13.6721 -12.9034 -10.4881  -6.8281  -6.5251  -5.5567  -2.8307  -1.8837
    -1.3924  -1.1315  -0.3498  -0.1504   0.6627   3.3361   3.9884   5.9223
     6.4258   7.7739   7.9683  10.3160

          k = 0.0027-0.6213 1.0214 (  2307 PWs)   bands (ev):

   -11.6145 -10.7975  -9.0421  -7.5911  -7.0023  -5.5007  -4.6415  -3.6581
    -3.3400  -1.5524  -0.8022  -0.3631   1.5811   3.1909   4.0308   4.2590
     4.9233   6.3171   7.8853   8.7575

          k =-0.5014 0.0135 0.0049 (  2296 PWs)   bands (ev):

   -14.9911 -12.0672 -11.3870  -9.5553  -6.7777  -4.1574  -2.8635  -2.0039
     0.1140   0.5888   0.8427   1.3944   2.0382   2.5166   4.0911   6.3732
     7.1848   8.0040   9.0176   9.5497

          k =-0.5075-0.0054 0.5057 (  2284 PWs)   bands (ev):

   -14.2486 -11.3906 -10.7278  -8.9510  -6.2896  -3.5891  -3.0384  -2.7096
    -1.7734  -1.3976  -0.0948   0.9258   1.4483   2.4377   4.2412   5.5589
     6.2798   7.5773   8.0035   9.2190

          k =-0.5135-0.0242 1.0065 (  2293 PWs)   bands (ev):

   -12.0951  -9.6651  -9.2407  -8.0034  -6.6881  -5.8830  -4.9786  -3.8990
    -2.7243  -1.8740  -1.3885   0.4577   1.6364   3.1348   3.8674   4.5323
     5.3075   6.6274   7.7038   8.1010

          k =-0.4867-0.5701 0.0247 (  2306 PWs)   bands (ev):

   -14.3821 -13.6390 -11.1679  -7.4163  -6.8217  -6.1198  -1.9696  -1.4935
    -0.0920   0.1790   0.2943   1.2435   1.8729   2.1329   4.3473   6.0385
     7.7819   8.4208   9.5571  10.4308

          k =-0.4927-0.5890 0.5255 (  2286 PWs)   bands (ev):

   -13.6640 -12.8979 -10.5309  -6.8557  -6.4855  -5.5416  -2.8303  -1.8798
    -1.3359  -1.0873  -0.3185  -0.1298   0.8752   2.6576   4.1850   5.7532
     6.4002   7.5716   8.2976  10.0651

          k =-0.4987-0.6078 1.0263 (  2299 PWs)   bands (ev):

   -11.6073 -10.7927  -9.0647  -7.5956  -7.0006  -5.5099  -4.6568  -3.6515
    -3.3258  -1.5545  -0.7912  -0.3358   1.7912   3.2267   3.6909   4.3120
     4.9634   6.3056   7.7329   8.8731

     the Fermi energy is     5.6763 ev

!    total energy              =     -90.39749580 Ry
     Harris-Foulkes estimate   =     -90.39749580 Ry
     estimated scf accuracy    <          1.2E-10 Ry

     The total energy is the sum of the following terms:

     one-electron contribution =     -77.21103179 Ry
     hartree contribution      =      52.83549380 Ry
     xc contribution           =     -27.55645844 Ry
     ewald contribution        =     -38.46552254 Ry
     smearing contrib. (-TS)   =       0.00002318 Ry

     convergence has been achieved in  11 iterations

     Forces acting on atoms (cartesian axes, Ry/au):

     atom    1 type  1   force =    -0.00385898   -0.00016767   -0.00018267
     atom    2 type  1   force =    -0.00081921   -0.00034366   -0.00001828
     atom    3 type  1   force =     0.00074787    0.00103848    0.00052623
     atom    4 type  1   force =     0.00300843   -0.00106791    0.00115690
     atom    5 type  1   force =     0.00251728    0.00073347   -0.00120397
     atom    6 type  1   force =    -0.00267435    0.00069471    0.00057192
     atom    7 type  1   force =    -0.00088039   -0.00109616   -0.00006167
     atom    8 type  1   force =     0.00195936    0.00020873   -0.00078846

     Total force =     0.007208     Total SCF correction =     0.000020


     Computing stress (Cartesian axis) and pressure

          total   stress  (Ry/bohr**3)                   (kbar)     P=       -1.04
  -0.00000342   0.00000872   0.00000140           -0.50        1.28        0.21
   0.00000872   0.00000843  -0.00000288            1.28        1.24       -0.42
   0.00000140  -0.00000288  -0.00002624            0.21       -0.42       -3.86


     number of scf cycles    =   6
     number of bfgs steps    =   5

     enthalpy old            =     -90.3973325177 Ry
     enthalpy new            =     -90.3974593812 Ry

     CASE: enthalpy_new < enthalpy_old

     new trust radius        =       0.0153759984 bohr
     new conv_thr            =       0.0000000001 Ry

     new unit-cell volume =    535.10013 a.u.^3 (    79.29366 Ang^3 )
     density =      2.01040 g/cm^3

CELL_PARAMETERS (bohr)
  11.582931187   0.299780122   0.155066124
   0.272987578   9.972564044   0.373314416
   0.051342930   0.156172108   4.642154723

ATOMIC_POSITIONS (crystal)
C             0.5560062011        0.3543510136        0.8360854829
C             0.5536674627        0.6450957047        0.7772188458
C             0.6562091596        0.2381835175        0.3381411184
C             0.6529315823        0.7575863624        0.2679125601
C             0.3491725666        0.8354643211        0.6442364415
C             0.3228897459        0.2404309215        1.0039047285
C             0.3156435105        0.9742266645        0.1046360711
C             0.7375007712       -0.0087985055        0.3019847517



     Writing output data file ./pp.save/
     NEW-OLD atomic charge density approx. for the potential
     extrapolated charge   31.96448, renormalised to   32.00000

     total cpu time spent up to now is       61.2 secs

     Self-consistent Calculation

     iteration #  1     ecut=    40.00 Ry     beta= 0.50
     Davidson diagonalization with overlap
     ethr =  1.00E-06,  avg # of iterations =  4.0

     total cpu time spent up to now is       63.8 secs

     total energy              =     -90.39738102 Ry
     Harris-Foulkes estimate   =     -90.47472675 Ry
     estimated scf accuracy    <       0.00019761 Ry

     iteration #  2     ecut=    40.00 Ry     beta= 0.50
     Davidson diagonalization with overlap
     ethr =  6.18E-07,  avg # of iterations =  3.0

     total cpu time spent up to now is       65.9 secs

     total energy              =     -90.39752776 Ry
     Harris-Foulkes estimate   =     -90.39773177 Ry
     estimated scf accuracy    <       0.00078674 Ry

     iteration #  3     ecut=    40.00 Ry     beta= 0.50
     Davidson diagonalization with overlap
     ethr =  6.18E-07,  avg # of iterations =  2.0

     total cpu time spent up to now is       67.5 secs

     total energy              =     -90.39758030 Ry
     Harris-Foulkes estimate   =     -90.39760135 Ry
     estimated scf accuracy    <       0.00008978 Ry

     iteration #  4     ecut=    40.00 Ry     beta= 0.50
     Davidson diagonalization with overlap
     ethr =  2.81E-07,  avg # of iterations =  1.0

     total cpu time spent up to now is       68.7 secs

     total energy              =     -90.39757456 Ry
     Harris-Foulkes estimate   =     -90.39758801 Ry
     estimated scf accuracy    <       0.00005106 Ry

     iteration #  5     ecut=    40.00 Ry     beta= 0.50
     Davidson diagonalization with overlap
     ethr =  1.60E-07,  avg # of iterations =  1.7

     total cpu time spent up to now is       70.1 secs

     total energy              =     -90.39757454 Ry
     Harris-Foulkes estimate   =     -90.39757875 Ry
     estimated scf accuracy    <       0.00000969 Ry

     iteration #  6     ecut=    40.00 Ry     beta= 0.50
     Davidson diagonalization with overlap
     ethr =  3.03E-08,  avg # of iterations =  2.8

     total cpu time spent up to now is       72.1 secs

     total energy              =     -90.39757715 Ry
     Harris-Foulkes estimate   =     -90.39757753 Ry
     estimated scf accuracy    <       0.00000111 Ry

     iteration #  7     ecut=    40.00 Ry     beta= 0.50
     Davidson diagonalization with overlap
     ethr =  3.46E-09,  avg # of iterations =  2.0

     total cpu time spent up to now is       73.8 secs

     total energy              =     -90.39757728 Ry
     Harris-Foulkes estimate   =     -90.39757733 Ry
     estimated scf accuracy    <       0.00000016 Ry

     iteration #  8     ecut=    40.00 Ry     beta= 0.50
     Davidson diagonalization with overlap
     ethr =  4.87E-10,  avg # of iterations =  2.0

     total cpu time spent up to now is       75.5 secs

     total energy              =     -90.39757730 Ry
     Harris-Foulkes estimate   =     -90.39757732 Ry
     estimated scf accuracy    <       0.00000004 Ry

     iteration #  9     ecut=    40.00 Ry     beta= 0.50
     Davidson diagonalization with overlap
     ethr =  1.13E-10,  avg # of iterations =  2.0

     total cpu time spent up to now is       77.2 secs

     total energy              =     -90.39757731 Ry
     Harris-Foulkes estimate   =     -90.39757731 Ry
     estimated scf accuracy    <          4.2E-09 Ry

     iteration # 10     ecut=    40.00 Ry     beta= 0.50
     Davidson diagonalization with overlap
     ethr =  1.30E-11,  avg # of iterations =  2.6

     total cpu time spent up to now is       79.3 secs

     total energy              =     -90.39757731 Ry
     Harris-Foulkes estimate   =     -90.39757731 Ry
     estimated scf accuracy    <          7.6E-10 Ry

     iteration # 11     ecut=    40.00 Ry     beta= 0.50
     Davidson diagonalization with overlap
     ethr =  2.36E-12,  avg # of iterations =  2.0

     total cpu time spent up to now is       81.0 secs

     total energy              =     -90.39757731 Ry
     Harris-Foulkes estimate   =     -90.39757731 Ry
     estimated scf accuracy    <          3.4E-10 Ry

     iteration # 12     ecut=    40.00 Ry     beta= 0.50
     Davidson diagonalization with overlap
     ethr =  1.05E-12,  avg # of iterations =  2.0

     total cpu time spent up to now is       83.0 secs

     End of self-consistent calculation

          k = 0.0000 0.0000 0.0000 (  2297 PWs)   bands (ev):

   -14.9936 -12.0499 -11.3584  -9.5473  -6.7356  -4.2153  -2.9052  -2.1205
     0.1342   0.6030   0.8024   1.3329   2.4813   2.7773   3.9724   6.0179
     7.4425   8.0682   9.2327   9.9080

          k =-0.0062-0.0186 0.5011 (  2293 PWs)   bands (ev):

   -14.2499 -11.3725 -10.6981  -8.9444  -6.2489  -3.6212  -3.0412  -2.7283
    -1.8451  -1.3817  -0.0851   0.8215   1.3480   3.1348   4.1230   5.5279
     6.2507   7.4174   8.1547   9.5789

          k =-0.0125-0.0372 1.0022 (  2285 PWs)   bands (ev):

   -12.0921  -9.6474  -9.2097  -7.9972  -6.6666  -5.8643  -4.9764  -3.8731
    -2.7085  -1.8783  -1.3952   0.4813   1.4266   3.1528   4.1644   4.5560
     5.2671   6.7081   7.5712   8.1997

          k = 0.0148-0.5835 0.0195 (  2302 PWs)   bands (ev):

   -14.3899 -13.6311 -11.1108  -7.3721  -6.8661  -6.1215  -2.0567  -1.5204
    -0.2188   0.1321   0.2363   1.2644   1.8800   2.8894   4.1281   6.5686
     7.4124   8.4866   9.6293  10.7208

          k = 0.0086-0.6020 0.5205 (  2300 PWs)   bands (ev):

   -13.6697 -12.8894 -10.4760  -6.8134  -6.5119  -5.5498  -2.8219  -1.8704
    -1.3785  -1.1127  -0.3371  -0.1383   0.6659   3.3521   3.9932   5.9390
     6.4343   7.7856   7.9853  10.3314

          k = 0.0024-0.6206 1.0216 (  2307 PWs)   bands (ev):

   -11.6061 -10.7818  -9.0265  -7.5805  -6.9870  -5.4888  -4.6309  -3.6447
    -3.3409  -1.5392  -0.7798  -0.3391   1.5982   3.2077   4.0402   4.2583
     4.9348   6.3279   7.8860   8.7611

          k =-0.5018 0.0135 0.0051 (  2296 PWs)   bands (ev):

   -14.9857 -12.0565 -11.3794  -9.5463  -6.7652  -4.1433  -2.8492  -1.9949
     0.1285   0.5975   0.8470   1.4060   2.0481   2.5299   4.0901   6.3796
     7.1989   8.0305   9.0484   9.5710

          k =-0.5080-0.0050 0.5062 (  2284 PWs)   bands (ev):

   -14.2422 -11.3784 -10.7187  -8.9414  -6.2747  -3.5735  -3.0284  -2.6941
    -1.7617  -1.3861  -0.0862   0.9374   1.4624   2.4496   4.2430   5.5718
     6.2880   7.5935   8.0223   9.2323

          k =-0.5142-0.0236 1.0073 (  2293 PWs)   bands (ev):

   -12.0852  -9.6460  -9.2267  -7.9952  -6.6770  -5.8669  -4.9753  -3.8868
    -2.7118  -1.8626  -1.3721   0.4835   1.6550   3.1507   3.8774   4.5377
     5.3135   6.6435   7.7017   8.1017

          k =-0.4869-0.5699 0.0246 (  2306 PWs)   bands (ev):

   -14.3815 -13.6252 -11.1573  -7.4043  -6.8115  -6.1129  -1.9616  -1.4675
    -0.0836   0.1946   0.2942   1.2557   1.8828   2.1439   4.3476   6.0441
     7.7946   8.4553   9.5821  10.4542

          k =-0.4932-0.5885 0.5256 (  2286 PWs)   bands (ev):

   -13.6617 -12.8838 -10.5192  -6.8414  -6.4721  -5.5347  -2.8215  -1.8663
    -1.3198  -1.0697  -0.3053  -0.1176   0.8796   2.6688   4.1911   5.7664
     6.4095   7.5847   8.3153  10.0787

          k =-0.4994-0.6071 1.0267 (  2299 PWs)   bands (ev):

   -11.5989 -10.7768  -9.0493  -7.5851  -6.9853  -5.4982  -4.6463  -3.6381
    -3.3265  -1.5413  -0.7688  -0.3113   1.8093   3.2459   3.6970   4.3121
     4.9761   6.3160   7.7304   8.8760

     the Fermi energy is     5.6889 ev

!    total energy              =     -90.39757731 Ry
     Harris-Foulkes estimate   =     -90.39757731 Ry
     estimated scf accuracy    <          2.0E-11 Ry

     The total energy is the sum of the following terms:

     one-electron contribution =     -76.88903798 Ry
     hartree contribution      =      52.68733462 Ry
     xc contribution           =     -27.55543286 Ry
     ewald contribution        =     -38.64047244 Ry
     smearing contrib. (-TS)   =       0.00003135 Ry

     convergence has been achieved in  12 iterations

     Forces acting on atoms (cartesian axes, Ry/au):

     atom    1 type  1   force =    -0.00198786    0.00037406    0.00047654
     atom    2 type  1   force =    -0.00191857    0.00115100   -0.00009580
     atom    3 type  1   force =     0.00008783   -0.00020198    0.00018803
     atom    4 type  1   force =     0.00347347   -0.00000577    0.00033629
     atom    5 type  1   force =     0.00139125   -0.00015678    0.00009446
     atom    6 type  1   force =    -0.00164846   -0.00067953    0.00082351
     atom    7 type  1   force =    -0.00079398    0.00057313   -0.00084191
     atom    8 type  1   force =     0.00139632   -0.00105412   -0.00098112

     Total force =     0.005754     Total SCF correction =     0.000006


     Computing stress (Cartesian axis) and pressure

          total   stress  (Ry/bohr**3)                   (kbar)     P=       -1.37
  -0.00000669   0.00000569  -0.00000425           -0.98        0.84       -0.62
   0.00000569  -0.00000835   0.00000978            0.84       -1.23        1.44
  -0.00000425   0.00000978  -0.00001286           -0.62        1.44       -1.89


     number of scf cycles    =   7
     number of bfgs steps    =   6

     enthalpy old            =     -90.3974593812 Ry
     enthalpy new            =     -90.3975409342 Ry

     CASE: enthalpy_new < enthalpy_old

     new trust radius        =       0.0114420656 bohr
     new conv_thr            =            1.0E-10 Ry

     new unit-cell volume =    534.25016 a.u.^3 (    79.16770 Ang^3 )
     density =      2.01360 g/cm^3

CELL_PARAMETERS (bohr)
  11.574629129   0.302717787   0.155661408
   0.275374501   9.969467310   0.372135726
   0.051627434   0.155646334   4.639583833

ATOMIC_POSITIONS (crystal)
C             0.5555092431        0.3542488152        0.8363017936
C             0.5537899844        0.6450077083        0.7773953117
C             0.6561522298        0.2382142155        0.3379131115
C             0.6535033224        0.7573730704        0.2682983053
C             0.3497867751        0.8356451178        0.6438119991
C             0.3219183997        0.2405664844        1.0043793935
C             0.3155579514        0.9742565115        0.1041797192
C             0.7378030940       -0.0087719231        0.3018403661



     Writing output data file ./pp.save/
     NEW-OLD atomic charge density approx. for the potential
     extrapolated charge   31.94909, renormalised to   32.00000

     total cpu time spent up to now is       83.1 secs

     Self-consistent Calculation

     iteration #  1     ecut=    40.00 Ry     beta= 0.50
     Davidson diagonalization with overlap
     ethr =  1.00E-06,  avg # of iterations =  3.1

     total cpu time spent up to now is       85.7 secs

     total energy              =     -90.39720238 Ry
     Harris-Foulkes estimate   =     -90.50779620 Ry
     estimated scf accuracy    <       0.00039425 Ry

     iteration #  2     ecut=    40.00 Ry     beta= 0.50
     Davidson diagonalization with overlap
     ethr =  1.23E-06,  avg # of iterations =  3.1

     total cpu time spent up to now is       88.3 secs

     total energy              =     -90.39752007 Ry
     Harris-Foulkes estimate   =     -90.39795534 Ry
     estimated scf accuracy    <       0.00167116 Ry

     iteration #  3     ecut=    40.00 Ry     beta= 0.50
     Davidson diagonalization with overlap
     ethr =  1.23E-06,  avg # of iterations =  2.1

     total cpu time spent up to now is       90.2 secs

     total energy              =     -90.39763886 Ry
     Harris-Foulkes estimate   =     -90.39767851 Ry
     estimated scf accuracy    <       0.00018336 Ry

     iteration #  4     ecut=    40.00 Ry     beta= 0.50
     Davidson diagonalization with overlap
     ethr =  5.73E-07,  avg # of iterations =  1.1

     total cpu time spent up to now is       91.7 secs

     total energy              =     -90.39763425 Ry
     Harris-Foulkes estimate   =     -90.39765184 Ry
     estimated scf accuracy    <       0.00010284 Ry

     iteration #  5     ecut=    40.00 Ry     beta= 0.50
     Davidson diagonalization with overlap
     ethr =  3.21E-07,  avg # of iterations =  1.0

     total cpu time spent up to now is       93.2 secs

     total energy              =     -90.39761960 Ry
     Harris-Foulkes estimate   =     -90.39763760 Ry
     estimated scf accuracy    <       0.00004488 Ry

     iteration #  6     ecut=    40.00 Ry     beta= 0.50
     Davidson diagonalization with overlap
     ethr =  1.40E-07,  avg # of iterations =  2.2

     total cpu time spent up to now is       95.2 secs

     total energy              =     -90.39762755 Ry
     Harris-Foulkes estimate   =     -90.39762771 Ry
     estimated scf accuracy    <       0.00000044 Ry

     iteration #  7     ecut=    40.00 Ry     beta= 0.50
     Davidson diagonalization with overlap
     ethr =  1.37E-09,  avg # of iterations =  3.8

     total cpu time spent up to now is       98.3 secs

     total energy              =     -90.39762783 Ry
     Harris-Foulkes estimate   =     -90.39762796 Ry
     estimated scf accuracy    <       0.00000040 Ry

     iteration #  8     ecut=    40.00 Ry     beta= 0.50
     Davidson diagonalization with overlap
     ethr =  1.24E-09,  avg # of iterations =  2.0

     total cpu time spent up to now is      100.3 secs

     total energy              =     -90.39762788 Ry
     Harris-Foulkes estimate   =     -90.39762789 Ry
     estimated scf accuracy    <       0.00000003 Ry

     iteration #  9     ecut=    40.00 Ry     beta= 0.50
     Davidson diagonalization with overlap
     ethr =  9.22E-11,  avg # of iterations =  2.0

     total cpu time spent up to now is      102.4 secs

     total energy              =     -90.39762789 Ry
     Harris-Foulkes estimate   =     -90.39762789 Ry
     estimated scf accuracy    <          3.3E-09 Ry

     iteration # 10     ecut=    40.00 Ry     beta= 0.50
     Davidson diagonalization with overlap
     ethr =  1.04E-11,  avg # of iterations =  2.0

     total cpu time spent up to now is      104.5 secs

     total energy              =     -90.39762789 Ry
     Harris-Foulkes estimate   =     -90.39762789 Ry
     estimated scf accuracy    <          1.1E-09 Ry

     iteration # 11     ecut=    40.00 Ry     beta= 0.50
     Davidson diagonalization with overlap
     ethr =  3.58E-12,  avg # of iterations =  1.8

     total cpu time spent up to now is      106.5 secs

     total energy              =     -90.39762789 Ry
     Harris-Foulkes estimate   =     -90.39762789 Ry
     estimated scf accuracy    <          1.5E-10 Ry

     iteration # 12     ecut=    40.00 Ry     beta= 0.50
     Davidson diagonalization with overlap
[...]

          k = 0.0745-0.5950 0.0238 (  2302 PWs)   bands (ev):

   -13.6973 -12.9010 -10.3869  -6.6663  -6.1402  -5.4269  -1.3679  -0.7846
     0.4700   0.7644   0.9228   2.0051   2.6407   3.5772   4.8237   7.1607
     8.5655   9.2036  10.3306  11.1861

          k = 0.0857-0.6168 0.5253 (  2300 PWs)   bands (ev):

   -12.9784 -12.1563  -9.7535  -6.1107  -5.7958  -4.8400  -2.1192  -1.1387
    -0.6621  -0.3908   0.3693   0.5842   1.2844   4.0206   4.7277   6.6603
     7.0843   8.4459   8.9962  10.8819

          k = 0.0968-0.6385 1.0269 (  2307 PWs)   bands (ev):

   -10.9171 -10.0423  -8.3207  -6.8641  -6.2615  -4.7584  -3.9265  -2.9366
    -2.5994  -0.8319  -0.1063   0.3602   2.2708   3.9458   4.7194   4.9391
     5.6796   6.9725   8.5526   9.4808

          k =-0.5315 0.0608-0.0109 (  2296 PWs)   bands (ev):

   -14.2745 -11.3371 -10.6798  -8.8344  -6.0566  -3.4071  -2.1452  -1.2489
     0.8306   1.2995   1.5845   2.0801   2.7076   3.2804   4.6772   7.1682
     7.7140   8.7040   9.9224  10.5336

          k =-0.5203 0.0391 0.4907 (  2284 PWs)   bands (ev):

   -13.5305 -10.6613 -10.0192  -8.2224  -5.5698  -2.8563  -2.2971  -1.9948
    -1.0219  -0.6684   0.6563   1.6839   2.1519   3.0676   4.8453   6.2382
     7.0763   8.1533   8.7276  10.1830

          k =-0.5091 0.0173 0.9922 (  2293 PWs)   bands (ev):

   -11.3723  -8.9360  -8.5276  -7.2605  -5.9693  -5.1670  -4.2271  -3.1815
    -1.9959  -1.1499  -0.6632   1.1748   2.4132   3.8668   4.5402   5.2409
     5.9787   7.3227   8.3463   8.8270

          k =-0.4570-0.5342 0.0129 (  2306 PWs)   bands (ev):

   -13.6862 -12.8875 -10.4580  -6.7167  -6.0664  -5.4213  -1.2494  -0.6875
     0.6323   0.8720   0.9465   1.9969   2.6497   2.8468   5.1131   6.6508
     8.2649   9.1551  10.3125  11.4005

          k =-0.4458-0.5560 0.5145 (  2286 PWs)   bands (ev):

   -12.9670 -12.1444  -9.8195  -6.1531  -5.7437  -4.8247  -2.1175  -1.1386
    -0.5743  -0.3273   0.4173   0.6055   1.5378   3.3458   4.9158   6.4331
     7.1578   8.2354   8.8552  10.9659

          k =-0.4346-0.5777 1.0160 (  2299 PWs)   bands (ev):

   -10.9051 -10.0355  -8.3514  -6.8776  -6.2530  -4.7781  -3.9513  -2.9308
    -2.5819  -0.8268  -0.0893   0.3989   2.5572   3.9020   4.3907   5.0339
     5.6642   7.0160   8.4366   9.5850

     the Fermi energy is     6.3821 ev

!    total energy              =     -90.39876215 Ry
     Harris-Foulkes estimate   =     -90.39876215 Ry
     estimated scf accuracy    <          9.8E-11 Ry

     The total energy is the sum of the following terms:

     one-electron contribution =     -55.45179257 Ry
     hartree contribution      =      42.80644545 Ry
     xc contribution           =     -27.55986944 Ry
     ewald contribution        =     -50.19340631 Ry
     smearing contrib. (-TS)   =      -0.00013928 Ry

     convergence has been achieved in  12 iterations

     Forces acting on atoms (cartesian axes, Ry/au):

     atom    1 type  1   force =     0.00110218    0.00086732   -0.00100471
     atom    2 type  1   force =     0.00321342   -0.00158720    0.00127973
     atom    3 type  1   force =    -0.00166080   -0.00221798   -0.00200720
     atom    4 type  1   force =    -0.00086083    0.00139252    0.00317277
     atom    5 type  1   force =    -0.00474648    0.00041566   -0.00261874
     atom    6 type  1   force =     0.00024420   -0.00130333    0.00335555
     atom    7 type  1   force =    -0.00160268    0.00078506   -0.00061774
     atom    8 type  1   force =     0.00431099    0.00164796   -0.00155967

     Total force =     0.010573     Total SCF correction =     0.000014


     Computing stress (Cartesian axis) and pressure

          total   stress  (Ry/bohr**3)                   (kbar)     P=        0.72
   0.00004780   0.00000370  -0.00001617            7.03        0.54       -2.38
   0.00000370  -0.00002192  -0.00002227            0.54       -3.23       -3.28
  -0.00001617  -0.00002227  -0.00001120           -2.38       -3.28       -1.65


     number of scf cycles    =  33
     number of bfgs steps    =  32

     enthalpy old            =     -90.3986319858 Ry
     enthalpy new            =     -90.3987280226 Ry

     CASE: enthalpy_new < enthalpy_old

     new trust radius        =       0.0350398819 bohr
     new conv_thr            =            1.0E-10 Ry

     new unit-cell volume =    505.74292 a.u.^3 (    74.94337 Ang^3 )
     density =      2.12710 g/cm^3

CELL_PARAMETERS (bohr)
  11.164893028   1.354847570  -0.188002630
   1.105146962   9.914250419   0.402125869
  -0.074748885   0.174753463   4.640756437

ATOMIC_POSITIONS (crystal)
C             0.5565033808        0.3466100994        0.8433396999
C             0.5562641798        0.6373768461        0.7825733716
C             0.6633519704        0.2086208527        0.3631690018
C             0.6640170141        0.7261457181        0.2893734796
C             0.3419495679        0.8721910848        0.6181107154
C             0.3083701238        0.2836742168        0.9674149839
C             0.3046118381        1.0176405294        0.0705971400
C             0.7489529252       -0.0557193472        0.3395416078



     Writing output data file ./pp.save/
     NEW-OLD atomic charge density approx. for the potential
     extrapolated charge   32.23190, renormalised to   32.00000

     total cpu time spent up to now is     2013.2 secs

     Self-consistent Calculation

     iteration #  1     ecut=    40.00 Ry     beta= 0.50
     Davidson diagonalization with overlap
     ethr =  1.00E-06,  avg # of iterations =  5.5

     total cpu time spent up to now is     2036.4 secs

     total energy              =     -90.39180090 Ry
     Harris-Foulkes estimate   =     -90.02589592 Ry
     estimated scf accuracy    <       0.00617659 Ry

     iteration #  2     ecut=    40.00 Ry     beta= 0.50
     Davidson diagonalization with overlap
     ethr =  1.93E-05,  avg # of iterations =  3.4

     total cpu time spent up to now is     2051.6 secs

     total energy              =     -90.39703706 Ry
     Harris-Foulkes estimate   =     -90.40456266 Ry
     estimated scf accuracy    <       0.02995807 Ry

     iteration #  3     ecut=    40.00 Ry     beta= 0.50
     Davidson diagonalization with overlap
     ethr =  1.93E-05,  avg # of iterations =  2.0

     total cpu time spent up to now is     2061.7 secs

     total energy              =     -90.39917410 Ry
     Harris-Foulkes estimate   =     -90.39979839 Ry
     estimated scf accuracy    <       0.00322193 Ry

     iteration #  4     ecut=    40.00 Ry     beta= 0.50
     Davidson diagonalization with overlap
     ethr =  1.01E-05,  avg # of iterations =  1.0

     total cpu time spent up to now is     2069.4 secs

     total energy              =     -90.39910118 Ry
     Harris-Foulkes estimate   =     -90.39934867 Ry
     estimated scf accuracy    <       0.00185731 Ry

     iteration #  5     ecut=    40.00 Ry     beta= 0.50
     Davidson diagonalization with overlap
     ethr =  5.80E-06,  avg # of iterations =  1.0

     total cpu time spent up to now is     2077.1 secs

     total energy              =     -90.39880051 Ry
     Harris-Foulkes estimate   =     -90.39913677 Ry
     estimated scf accuracy    <       0.00105365 Ry

     iteration #  6     ecut=    40.00 Ry     beta= 0.50
     Davidson diagonalization with overlap
     ethr =  3.29E-06,  avg # of iterations =  2.3

     total cpu time spent up to now is     2087.9 secs

     total energy              =     -90.39886812 Ry
     Harris-Foulkes estimate   =     -90.39890199 Ry
     estimated scf accuracy    <       0.00009866 Ry

     iteration #  7     ecut=    40.00 Ry     beta= 0.50
     Davidson diagonalization with overlap
     ethr =  3.08E-07,  avg # of iterations =  2.8

     total cpu time spent up to now is     2100.4 secs

     total energy              =     -90.39888373 Ry
     Harris-Foulkes estimate   =     -90.39888591 Ry
     estimated scf accuracy    <       0.00000588 Ry

     iteration #  8     ecut=    40.00 Ry     beta= 0.50
     Davidson diagonalization with overlap
     ethr =  1.84E-08,  avg # of iterations =  2.3

     total cpu time spent up to now is     2112.0 secs

     total energy              =     -90.39888492 Ry
     Harris-Foulkes estimate   =     -90.39888507 Ry
     estimated scf accuracy    <       0.00000071 Ry

     iteration #  9     ecut=    40.00 Ry     beta= 0.50
     Davidson diagonalization with overlap
     ethr =  2.22E-09,  avg # of iterations =  2.0

     total cpu time spent up to now is     2123.3 secs

     total energy              =     -90.39888486 Ry
     Harris-Foulkes estimate   =     -90.39888509 Ry
     estimated scf accuracy    <       0.00000060 Ry

     iteration # 10     ecut=    40.00 Ry     beta= 0.50
     Davidson diagonalization with overlap
     ethr =  1.87E-09,  avg # of iterations =  2.0

     total cpu time spent up to now is     2133.7 secs

     total energy              =     -90.39888492 Ry
     Harris-Foulkes estimate   =     -90.39888493 Ry
     estimated scf accuracy    <       0.00000003 Ry

     iteration # 11     ecut=    40.00 Ry     beta= 0.50
     Davidson diagonalization with overlap
     ethr =  1.04E-10,  avg # of iterations =  2.8

     total cpu time spent up to now is     2147.0 secs

     total energy              =     -90.39888493 Ry
     Harris-Foulkes estimate   =     -90.39888493 Ry
     estimated scf accuracy    <          3.9E-09 Ry

     iteration # 12     ecut=    40.00 Ry     beta= 0.50
     Davidson diagonalization with overlap
     ethr =  1.22E-11,  avg # of iterations =  2.2

     total cpu time spent up to now is     2159.0 secs

     total energy              =     -90.39888493 Ry
     Harris-Foulkes estimate   =     -90.39888493 Ry
     estimated scf accuracy    <          3.1E-10 Ry

     iteration # 13     ecut=    40.00 Ry     beta= 0.50
     Davidson diagonalization with overlap
     ethr =  9.80E-13,  avg # of iterations =  2.2

     total cpu time spent up to now is     2170.8 secs

     End of self-consistent calculation

          k = 0.0000 0.0000 0.0000 (  2297 PWs)   bands (ev):

   -14.3602 -11.3835 -10.7347  -8.9158  -6.1362  -3.6071  -2.2577  -1.5278
     0.7747   1.2336   1.4343   1.9294   3.1796   3.4937   4.6075   6.5812
     8.1942   8.6946   9.7725  10.3261

          k = 0.0111-0.0216 0.5015 (  2293 PWs)   bands (ev):

   -13.6156 -10.7109 -10.0727  -8.3089  -5.6492  -3.0102  -2.3892  -2.0864
    -1.2420  -0.7399   0.5885   1.4276   1.9241   3.8594   4.7583   6.1856
     6.7692   8.1332   8.8091   9.9962

          k = 0.0221-0.0432 1.0031 (  2285 PWs)   bands (ev):

   -11.4559  -9.0061  -8.5770  -7.3485  -6.0311  -5.2290  -4.3194  -3.2566
    -2.0707  -1.2373  -0.7833   1.0870   2.0128   3.7589   4.8204   5.1442
     5.9363   7.3512   8.1878   8.7419

          k = 0.0726-0.5948 0.0236 (  2302 PWs)   bands (ev):

   -13.7593 -12.9809 -10.4798  -6.7506  -6.2173  -5.5071  -1.4392  -0.8673
     0.3922   0.6927   0.8537   1.9258   2.5635   3.4687   4.7397   7.0666
     8.4496   9.1205  10.2464  11.1171

          k = 0.0836-0.6164 0.5251 (  2300 PWs)   bands (ev):

   -13.0407 -12.2361  -9.8460  -6.1945  -5.8727  -4.9218  -2.1845  -1.2162
    -0.7400  -0.4685   0.2850   0.5020   1.2200   3.9200   4.6397   6.5746
     6.9977   8.3590   8.8880  10.8067

          k = 0.0947-0.6379 1.0266 (  2307 PWs)   bands (ev):

   -10.9812 -10.1214  -8.4044  -6.9376  -6.3411  -4.8433  -4.0081  -3.0170
    -2.6788  -0.9149  -0.1835   0.2875   2.2027   3.8623   4.6301   4.8572
     5.5930   6.8909   8.4657   9.3928

          k =-0.5275 0.0592-0.0107 (  2296 PWs)   bands (ev):

   -14.3445 -11.4081 -10.7626  -8.9202  -6.1400  -3.4877  -2.2304  -1.3433
     0.7627   1.2205   1.5033   2.0059   2.6238   3.2054   4.6117   7.0680
     7.6363   8.6220   9.8274  10.4312

          k =-0.5164 0.0377 0.4908 (  2284 PWs)   bands (ev):

   -13.6006 -10.7321 -10.1020  -8.3090  -5.6527  -2.9304  -2.3721  -2.0777
    -1.1140  -0.7467   0.5828   1.6000   2.0712   2.9863   4.7773   6.1563
     6.9844   8.0720   8.6398  10.0843

          k =-0.5054 0.0161 0.9923 (  2293 PWs)   bands (ev):

   -11.4429  -9.0062  -8.6088  -7.3417  -6.0475  -5.2360  -4.3138  -3.2655
    -2.0809  -1.2286  -0.7402   1.0977   2.3223   3.7812   4.4595   5.1562
     5.9040   7.2412   8.2634   8.7388

          k =-0.4549-0.5356 0.0128 (  2306 PWs)   bands (ev):

   -13.7489 -12.9685 -10.5457  -6.7969  -6.1481  -5.5015  -1.3273  -0.7767
     0.5410   0.8053   0.8725   1.9182   2.5716   2.7593   5.0212   6.5765
     8.1774   9.0761  10.2268  11.3060

          k =-0.4439-0.5571 0.5144 (  2286 PWs)   bands (ev):

   -13.0301 -12.2251  -9.9071  -6.2332  -5.8240  -4.9070  -2.1830  -1.2160
    -0.6578  -0.4081   0.3298   0.5226   1.4618   3.2622   4.8269   6.3558
     7.0712   8.1526   8.7703  10.8729

          k =-0.4328-0.5787 1.0159 (  2299 PWs)   bands (ev):

   -10.9701 -10.1152  -8.4332  -6.9496  -6.3334  -4.8611  -4.0310  -3.0111
    -2.6624  -0.9103  -0.1676   0.3244   2.4728   3.8227   4.3098   4.9469
     5.5817   6.9293   8.3558   9.4961

     the Fermi energy is     6.2995 ev

!    total energy              =     -90.39888493 Ry
     Harris-Foulkes estimate   =     -90.39888493 Ry
     estimated scf accuracy    <          5.3E-11 Ry

     The total energy is the sum of the following terms:

     one-electron contribution =     -57.54114640 Ry
     hartree contribution      =      43.75469825 Ry
     xc contribution           =     -27.55588828 Ry
     ewald contribution        =     -49.05643690 Ry
     smearing contrib. (-TS)   =      -0.00011161 Ry

     convergence has been achieved in  13 iterations

     Forces acting on atoms (cartesian axes, Ry/au):

     atom    1 type  1   force =     0.00121504   -0.00138069   -0.00013175
     atom    2 type  1   force =     0.00287078    0.00034939    0.00065578
     atom    3 type  1   force =    -0.00251662    0.00063524   -0.00161586
     atom    4 type  1   force =    -0.00201902    0.00152136    0.00153809
     atom    5 type  1   force =    -0.00224266   -0.00032859   -0.00199908
     atom    6 type  1   force =     0.00088240   -0.00017638    0.00229251
     atom    7 type  1   force =    -0.00118713   -0.00059054    0.00017201
     atom    8 type  1   force =     0.00299721   -0.00002978   -0.00091171

     Total force =     0.007556     Total SCF correction =     0.000012


     Computing stress (Cartesian axis) and pressure

          total   stress  (Ry/bohr**3)                   (kbar)     P=       -0.58
   0.00001422   0.00001086  -0.00001706            2.09        1.60       -2.51
   0.00001086  -0.00001037  -0.00001981            1.60       -1.53       -2.91
  -0.00001706  -0.00001981  -0.00001578           -2.51       -2.91       -2.32


     number of scf cycles    =  34
     number of bfgs steps    =  33

     enthalpy old            =     -90.3987280226 Ry
     enthalpy new            =     -90.3988505485 Ry

     CASE: enthalpy_new < enthalpy_old

     new trust radius        =       0.0241296629 bohr
     new conv_thr            =       0.0000000001 Ry

     new unit-cell volume =    505.79866 a.u.^3 (    74.95163 Ang^3 )
     density =      2.12686 g/cm^3

CELL_PARAMETERS (bohr)
  11.197088304   1.405900704  -0.223205664
   1.144268038   9.902215774   0.396994878
  -0.087952875   0.172254102   4.638643376

ATOMIC_POSITIONS (crystal)
C             0.5567219825        0.3462230058        0.8425939185
C             0.5564323439        0.6372666229        0.7835629668
C             0.6628699489        0.2071700758        0.3632364046
C             0.6638565538        0.7249303503        0.2922229807
C             0.3413171491        0.8737659163        0.6156550879
C             0.3089302485        0.2855496870        0.9677106685
C             0.3044300219        1.0195432532        0.0686401377
C             0.7494627514       -0.0579089113        0.3404978353



     Writing output data file ./pp.save/
     NEW-OLD atomic charge density approx. for the potential
     extrapolated charge   32.00353, renormalised to   32.00000

     total cpu time spent up to now is     2171.3 secs

     Self-consistent Calculation

     iteration #  1     ecut=    40.00 Ry     beta= 0.50
     Davidson diagonalization with overlap
     ethr =  1.00E-06,  avg # of iterations =  5.0

     total cpu time spent up to now is     2195.0 secs

     total energy              =     -90.39894510 Ry
     Harris-Foulkes estimate   =     -90.39333401 Ry
     estimated scf accuracy    <       0.00024764 Ry

     iteration #  2     ecut=    40.00 Ry     beta= 0.50
     Davidson diagonalization with overlap
     ethr =  7.74E-07,  avg # of iterations =  2.0

     total cpu time spent up to now is     2206.2 secs

     total energy              =     -90.39895852 Ry
     Harris-Foulkes estimate   =     -90.39903085 Ry
     estimated scf accuracy    <       0.00019542 Ry

     iteration #  3     ecut=    40.00 Ry     beta= 0.50
     Davidson diagonalization with overlap
     ethr =  6.11E-07,  avg # of iterations =  2.0

     total cpu time spent up to now is     2217.0 secs

     total energy              =     -90.39898821 Ry
     Harris-Foulkes estimate   =     -90.39900949 Ry
     estimated scf accuracy    <       0.00007207 Ry

     iteration #  4     ecut=    40.00 Ry     beta= 0.50
     Davidson diagonalization with overlap
     ethr =  2.25E-07,  avg # of iterations =  1.8

     total cpu time spent up to now is     2226.8 secs

     total energy              =     -90.39899925 Ry
     Harris-Foulkes estimate   =     -90.39900619 Ry
     estimated scf accuracy    <       0.00002804 Ry

     iteration #  5     ecut=    40.00 Ry     beta= 0.50
     Davidson diagonalization with overlap
     ethr =  8.76E-08,  avg # of iterations =  1.2

     total cpu time spent up to now is     2235.3 secs

     total energy              =     -90.39900279 Ry
     Harris-Foulkes estimate   =     -90.39900324 Ry
     estimated scf accuracy    <       0.00000147 Ry

     iteration #  6     ecut=    40.00 Ry     beta= 0.50
     Davidson diagonalization with overlap
     ethr =  4.61E-09,  avg # of iterations =  2.1

     total cpu time spent up to now is     2247.1 secs

     total energy              =     -90.39900318 Ry
     Harris-Foulkes estimate   =     -90.39900324 Ry
     estimated scf accuracy    <       0.00000027 Ry

     iteration #  7     ecut=    40.00 Ry     beta= 0.50
     Davidson diagonalization with overlap
     ethr =  8.43E-10,  avg # of iterations =  2.0

     total cpu time spent up to now is     2258.1 secs

     total energy              =     -90.39900322 Ry
     Harris-Foulkes estimate   =     -90.39900324 Ry
     estimated scf accuracy    <       0.00000007 Ry

     iteration #  8     ecut=    40.00 Ry     beta= 0.50
     Davidson diagonalization with overlap
     ethr =  2.09E-10,  avg # of iterations =  2.0

     total cpu time spent up to now is     2272.7 secs

     total energy              =     -90.39900324 Ry
     Harris-Foulkes estimate   =     -90.39900324 Ry
     estimated scf accuracy    <       0.00000002 Ry

     iteration #  9     ecut=    40.00 Ry     beta= 0.50
     Davidson diagonalization with overlap
     ethr =  4.83E-11,  avg # of iterations =  1.8

     total cpu time spent up to now is     2283.1 secs

     total energy              =     -90.39900324 Ry
     Harris-Foulkes estimate   =     -90.39900324 Ry
     estimated scf accuracy    <          5.6E-10 Ry

     iteration # 10     ecut=    40.00 Ry     beta= 0.50
     Davidson diagonalization with overlap
     ethr =  1.75E-12,  avg # of iterations =  3.0

     total cpu time spent up to now is     2298.4 secs

     total energy              =     -90.39900324 Ry
     Harris-Foulkes estimate   =     -90.39900324 Ry
     estimated scf accuracy    <          1.4E-10 Ry

     iteration # 11     ecut=    40.00 Ry     beta= 0.50
     Davidson diagonalization with overlap
