
     Program PWSCF v.6.5 starts on  9Jul2022 at 19:17:19 

     This program is part of the open-source Quantum ESPRESSO suite
     for quantum simulation of materials; please cite
         "P. Giannozzi et al., J. Phys.:Condens. Matter 21 395502 (2009);
         "P. Giannozzi et al., J. Phys.:Condens. Matter 29 465901 (2017);
          URL http://www.quantum-espresso.org", 
     in publications or presentations arising from this work. More details at
     http://www.quantum-espresso.org/quote

     Parallel version (MPI), running on    96 processors

     MPI processes distributed on     2 nodes
     R & G space division:  proc/nbgrp/npool/nimage =      96
     Waiting for input...
     Reading input from standard input
     Message from routine read_cards :
     DEPRECATED: no units specified in CELL_PARAMETERS card

     Current dimensions of program PWSCF are:
     Max number of different atomic species (ntypx) = 10
     Max number of k-points (npk) =  40000
     Max angular momentum in pseudopotentials (lmaxx) =  3

     Subspace diagonalization in iterative solution of the eigenvalue problem:
     one sub-group per band group will be used
     scalapack distributed-memory algorithm (size of sub-group:  9*  9 procs)

 
     Parallelization info
     --------------------
     sticks:   dense  smooth     PW     G-vecs:    dense   smooth      PW
     Min          15      15      4                  195      195      31
     Max          16      16      6                  198      198      35
     Sum        1503    1503    455                18825    18825    3121
 


     bravais-lattice index     =            0
     lattice parameter (alat)  =      12.7071  a.u.
     unit-cell volume          =     550.6563 (a.u.)^3
     number of atoms/cell      =            8
     number of atomic types    =            1
     number of electrons       =        32.00
     number of Kohn-Sham states=           20
     kinetic-energy cutoff     =      40.0000  Ry
     charge density cutoff     =     160.0000  Ry
     convergence threshold     =      1.0E-08
     mixing beta               =       0.5000
     number of iterations used =            8  plain     mixing
     Exchange-correlation=  SLA  PW   PBE  PBE
                           (   1   4   3   4   0   0   0)
     nstep                     =          250


     celldm(1)=  12.707074  celldm(2)=   0.000000  celldm(3)=   0.000000
     celldm(4)=   0.000000  celldm(5)=   0.000000  celldm(6)=   0.000000

     crystal axes: (cart. coord. in units of alat)
               a(1) = (   0.999231  -0.039214   0.000063 )  
               a(2) = (  -0.011167   0.733166   0.000055 )  
               a(3) = (   0.000354   0.000456   0.366552 )  

     reciprocal axes: (cart. coord. in units 2 pi/alat)
               b(1) = (  1.001368  0.015252 -0.000986 )  
               b(2) = (  0.053560  1.364763 -0.001751 )  
               b(3) = ( -0.000180 -0.000208  2.728128 )  


     PseudoPot. # 1 for C  read from file:
     ./C.pbe-van_bm.upf
     MD5 check sum: 1a69bf6b8db32088f5b2163dbdb77a27
     Pseudo is Ultrasoft, Zval =  4.0
     Generated by new atomic code, or converted to UPF format
     Using radial grid of  721 points,  4 beta functions with: 
                l(1) =   0
                l(2) =   0
                l(3) =   1
                l(4) =   1
     Q(r) pseudized with  8 coefficients,  rinner =    0.800   0.800   0.800


     atomic species   valence    mass     pseudopotential
        C              4.00    12.00000     C ( 1.00)

     No symmetry found



   Cartesian axes

     site n.     atom                  positions (alat units)
         1           C   tau(   1) = (   0.2758974   0.3014412   0.1100397  )
         2           C   tau(   2) = (   0.7697633   0.6482362   0.1100796  )
         3           C   tau(   3) = (   0.3597886   0.2377011   0.2933327  )
         4           C   tau(   4) = (   0.8532609   0.5840059  -0.0731953  )
         5           C   tau(   5) = (   0.1068707   0.4304028   0.1100376  )
         6           C   tau(   6) = (   0.0233580   0.4946454   0.2933018  )
         7           C   tau(   7) = (   0.6008744   0.7773309   0.1100885  )
         8           C   tau(   8) = (   0.5285073   0.1084306   0.2933145  )

     number of k points=    16  Marzari-Vanderbilt smearing, width (Ry)=  0.0200
                       cart. coord. in units 2pi/alat
        k(    1) = (   0.0000000   0.0000000   0.0000000), wk =   0.0666667
        k(    2) = (  -0.0000360  -0.0000415   0.5456257), wk =   0.1333333
        k(    3) = (  -0.0000720  -0.0000831   1.0912513), wk =   0.1333333
        k(    4) = (   0.0178532   0.4549209  -0.0005837), wk =   0.1333333
        k(    5) = (   0.0178172   0.4548794   0.5450419), wk =   0.1333333
        k(    6) = (   0.0177812   0.4548378   1.0906676), wk =   0.1333333
        k(    7) = (   0.0179252   0.4550040  -1.0918351), wk =   0.1333333
        k(    8) = (   0.0178892   0.4549625  -0.5462094), wk =   0.1333333
        k(    9) = (  -0.5006842  -0.0076261   0.0004932), wk =   0.0666667
        k(   10) = (  -0.5007202  -0.0076676   0.5461189), wk =   0.1333333
        k(   11) = (  -0.5007562  -0.0077092   1.0917445), wk =   0.1333333
        k(   12) = (  -0.4828310   0.4472948  -0.0000905), wk =   0.1333333
        k(   13) = (  -0.4828670   0.4472533   0.5455352), wk =   0.1333333
        k(   14) = (  -0.4829030   0.4472118   1.0911608), wk =   0.1333333
        k(   15) = (  -0.4827590   0.4473779  -1.0913418), wk =   0.1333333
        k(   16) = (  -0.4827950   0.4473364  -0.5457162), wk =   0.1333333

     Dense  grid:    18825 G-vectors     FFT dimensions: (  54,  40,  20)

     Estimated max dynamical RAM per process >       1.46 MB

     Estimated total dynamical RAM >     140.42 MB

     Initial potential from superposition of free atoms

     starting charge   31.99968, renormalised to   32.00000
     Starting wfcs are   32 randomized atomic wfcs

     total cpu time spent up to now is        0.7 secs

     Self-consistent Calculation

     iteration #  1     ecut=    40.00 Ry     beta= 0.50
     Davidson diagonalization with overlap
     ethr =  1.00E-02,  avg # of iterations =  2.2

     total cpu time spent up to now is        1.7 secs

     total energy              =     -91.11758161 Ry
     Harris-Foulkes estimate   =     -91.49740979 Ry
     estimated scf accuracy    <       0.77856568 Ry

     iteration #  2     ecut=    40.00 Ry     beta= 0.50
     Davidson diagonalization with overlap
     ethr =  2.43E-03,  avg # of iterations =  2.2

     total cpu time spent up to now is        2.5 secs

     total energy              =     -91.14660833 Ry
     Harris-Foulkes estimate   =     -91.17912022 Ry
     estimated scf accuracy    <       0.07196954 Ry

     iteration #  3     ecut=    40.00 Ry     beta= 0.50
     Davidson diagonalization with overlap
     ethr =  2.25E-04,  avg # of iterations =  4.2

     total cpu time spent up to now is        3.7 secs

     total energy              =     -91.15802204 Ry
     Harris-Foulkes estimate   =     -91.15802982 Ry
     estimated scf accuracy    <       0.00203503 Ry

     iteration #  4     ecut=    40.00 Ry     beta= 0.50
     Davidson diagonalization with overlap
     ethr =  6.36E-06,  avg # of iterations =  4.1

     total cpu time spent up to now is        4.8 secs

     total energy              =     -91.15820277 Ry
     Harris-Foulkes estimate   =     -91.15827083 Ry
     estimated scf accuracy    <       0.00017089 Ry

     iteration #  5     ecut=    40.00 Ry     beta= 0.50
     Davidson diagonalization with overlap
     ethr =  5.34E-07,  avg # of iterations =  2.0

     total cpu time spent up to now is        5.6 secs

     total energy              =     -91.15823667 Ry
     Harris-Foulkes estimate   =     -91.15823886 Ry
     estimated scf accuracy    <       0.00000489 Ry

     iteration #  6     ecut=    40.00 Ry     beta= 0.50
     Davidson diagonalization with overlap
     ethr =  1.53E-08,  avg # of iterations =  2.6

     total cpu time spent up to now is        6.4 secs

     total energy              =     -91.15823820 Ry
     Harris-Foulkes estimate   =     -91.15823818 Ry
     estimated scf accuracy    <       0.00000014 Ry

     iteration #  7     ecut=    40.00 Ry     beta= 0.50
     Davidson diagonalization with overlap
     ethr =  4.23E-10,  avg # of iterations =  2.9

     total cpu time spent up to now is        7.4 secs

     total energy              =     -91.15823825 Ry
     Harris-Foulkes estimate   =     -91.15823825 Ry
     estimated scf accuracy    <       0.00000003 Ry

     iteration #  8     ecut=    40.00 Ry     beta= 0.50
     Davidson diagonalization with overlap
     ethr =  9.65E-11,  avg # of iterations =  2.0

     total cpu time spent up to now is        8.2 secs

     End of self-consistent calculation

          k = 0.0000 0.0000 0.0000 (  2361 PWs)   bands (ev):

   -14.0375 -12.5066 -12.5055  -8.7902  -7.6614  -1.8969  -1.8957  -1.6256
    -0.9176  -0.6250  -0.6241   0.4437   0.4462   2.4188   2.5489   3.0528
     7.1711   8.9370  12.8046  12.8379

          k =-0.0000-0.0000 0.5456 (  2371 PWs)   bands (ev):

   -13.3289 -11.8156 -11.8144  -8.1849  -7.1025  -3.3507  -2.6276  -2.6261
    -1.1024  -1.1006  -0.8002   0.1566   0.1894   0.1914   1.1234   3.9152
     6.8771   9.8472  11.4846  11.4873

          k =-0.0001-0.0001 1.0913 (  2343 PWs)   bands (ev):

   -11.2435  -9.8019  -9.8006  -8.0392  -6.3833  -6.3710  -6.3697  -4.6196
    -3.4682  -1.8909  -0.9620  -0.9612   1.5498   2.3125   2.3155   4.7709
     6.4404   7.8956   7.9005  10.3506

          k = 0.0179 0.4549-0.0006 (  2365 PWs)   bands (ev):

   -13.8392 -13.3011 -11.4383 -10.0549  -6.1713  -4.0909  -1.8060  -1.6914
    -0.7522  -0.2779   0.2223   1.1213   1.3054   1.8874   2.0839   2.5451
     8.1659  10.4052  10.4270  12.7843

          k = 0.0178 0.4549 0.5450 (  2352 PWs)   bands (ev):

   -13.1338 -12.6022 -10.7604  -9.4061  -5.7286  -3.9966  -3.1328  -2.4249
    -1.5063  -0.9691  -0.8518  -0.4465   0.3328   1.0931   1.8891   3.3293
     7.7765   9.5981  11.2918  13.1460

          k = 0.0178 0.4548 1.0907 (  2346 PWs)   bands (ev):

   -11.0583 -10.5508  -8.8472  -8.0661  -7.0920  -7.0584  -5.4080  -4.2624
    -3.6015  -2.1042  -1.2368  -0.6578   1.4055   1.4948   3.4563   4.3229
     6.7690   7.1478   9.1902  10.1199

          k = 0.0179 0.4550-1.0918 (  2345 PWs)   bands (ev):

   -11.0578 -10.5509  -8.8478  -8.0660  -7.0929  -7.0578  -5.4078  -4.2622
    -3.6013  -2.1042  -1.2369  -0.6577   1.4005   1.4968   3.4572   4.3276
     6.7708   7.1479   9.1865  10.1181

          k = 0.0179 0.4550-0.5462 (  2351 PWs)   bands (ev):

   -13.1335 -12.6023 -10.7606  -9.4061  -5.7290  -3.9958  -3.1329  -2.4253
    -1.5065  -0.9720  -0.8507  -0.4461   0.3335   1.0927   1.8908   3.3305
     7.7780   9.5968  11.3029  13.1432

          k =-0.5007-0.0076 0.0005 (  2372 PWs)   bands (ev):

   -13.6445 -13.6438 -10.7173 -10.7158  -5.1861  -5.1849  -1.4691  -1.4685
    -0.5557  -0.5554   1.1440   1.1461   1.2702   1.2718   1.7314   1.7337
     9.4959   9.4976  10.3102  10.3126

          k =-0.5007-0.0077 0.5461 (  2350 PWs)   bands (ev):

   -12.9401 -12.9393 -10.0555 -10.0540  -4.8699  -4.8686  -2.8636  -2.8629
    -0.9421  -0.9401  -0.6440  -0.6414   0.8251   0.8271   2.0614   2.0630
     8.9376   8.9409  11.1837  11.1937

          k =-0.5008-0.0077 1.0917 (  2349 PWs)   bands (ev):

   -10.8694 -10.8686  -8.3252  -8.3234  -7.2339  -7.2333  -4.8108  -4.8091
    -2.8616  -2.8605  -0.8737  -0.8722   1.6626   1.6667   3.6811   3.6823
     6.9632   6.9676   9.3825   9.3834

          k =-0.4828 0.4473-0.0001 (  2354 PWs)   bands (ev):

   -13.9166 -13.0155 -12.0105  -9.2688  -7.1400  -2.9864  -2.3814  -0.8667
    -0.7885  -0.4596   0.0470   0.2164   0.8683   2.3297   2.3720   2.8142
     7.7003  10.2822  11.5233  12.5363

          k =-0.4829 0.4473 0.5455 (  2350 PWs)   bands (ev):

   -13.2124 -12.3161 -11.3250  -8.6448  -6.6125  -3.2766  -3.2661  -2.0551
    -1.8365  -1.5281  -0.3271  -0.0215   0.3388   1.0105   1.1410   3.6327
     7.2587  10.6770  11.1889  12.2834

          k =-0.4829 0.4472 1.0912 (  2356 PWs)   bands (ev):

   -11.1397 -10.2685  -9.3486  -7.9878  -6.7990  -6.6466  -5.9193  -4.3037
    -3.7211  -1.6761  -1.4467  -0.6758   0.9167   2.4547   2.9835   4.2435
     6.5492   7.8782   8.6255  10.2721

          k =-0.4828 0.4474-1.0913 (  2354 PWs)   bands (ev):

   -11.1394 -10.2686  -9.3488  -7.9883  -6.7994  -6.6463  -5.9186  -4.3037
    -3.7210  -1.6761  -1.4465  -0.6760   0.9139   2.4528   2.9880   4.2462
     6.5508   7.8795   8.6208  10.2702

          k =-0.4828 0.4473-0.5457 (  2348 PWs)   bands (ev):

   -13.2122 -12.3161 -11.3252  -8.6451  -6.6122  -3.2770  -3.2668  -2.0542
    -1.8358  -1.5297  -0.3277  -0.0216   0.3380   1.0133   1.1412   3.6338
     7.2596  10.6768  11.1909  12.2807

     the Fermi energy is     5.0022 ev

!    total energy              =     -91.15823825 Ry
     Harris-Foulkes estimate   =     -91.15823825 Ry
     estimated scf accuracy    <          1.5E-09 Ry

     The total energy is the sum of the following terms:

     one-electron contribution =     -46.63386920 Ry
     hartree contribution      =      37.27196861 Ry
     xc contribution           =     -27.96536056 Ry
     ewald contribution        =     -53.83134436 Ry
     smearing contrib. (-TS)   =       0.00036726 Ry

     convergence has been achieved in   8 iterations

     Forces acting on atoms (cartesian axes, Ry/au):

     atom    1 type  1   force =    -0.01476022    0.01126007    0.00020407
     atom    2 type  1   force =    -0.01465094    0.01110927    0.00005364
     atom    3 type  1   force =     0.01407608   -0.01128793   -0.00026331
     atom    4 type  1   force =     0.01484937   -0.01123889   -0.00000171
     atom    5 type  1   force =     0.01479630   -0.01092770   -0.00014245
     atom    6 type  1   force =    -0.01471437    0.01101199    0.00012577
     atom    7 type  1   force =     0.01417824   -0.01096265    0.00002260
     atom    8 type  1   force =    -0.01377446    0.01103586    0.00000140

     Total force =     0.051615     Total SCF correction =     0.000024


     Computing stress (Cartesian axis) and pressure

          total   stress  (Ry/bohr**3)                   (kbar)     P=        0.78
  -0.00011820   0.00008633  -0.00000038          -17.39       12.70       -0.06
   0.00008633  -0.00007918   0.00000072           12.70      -11.65        0.11
  -0.00000038   0.00000072   0.00021319           -0.06        0.11       31.36


     BFGS Geometry Optimization

     number of scf cycles    =   1
     number of bfgs steps    =   0

     enthalpy new            =     -91.1582008209 Ry

     new trust radius        =       0.0250055705 bohr
     new conv_thr            =       0.0000000100 Ry

     new unit-cell volume =    550.85728 a.u.^3 (    81.62863 Ang^3 )
     density =      1.95289 g/cm^3

CELL_PARAMETERS (bohr)
  12.658682480  -0.469909245   0.000675006
  -0.121373647   9.297636251   0.000872765
   0.004455087   0.005882059   4.682616768

ATOMIC_POSITIONS (crystal)
C             0.2796143353        0.4271271101        0.3001338368
C             0.7794537772        0.9268553949        0.3000495416
C             0.3647127232        0.3420090217        0.8000784543
C             0.8645647000        0.8417135120       -0.1999613929
C             0.1146259022        0.5918177304        0.3000573851
C             0.0294986566        0.6769316702        0.8000850309
C             0.6145481422        1.0917443487        0.3000708294
C             0.5295227633        0.1769022120        0.8000823146



     Writing output data file ./pp.save/
     NEW-OLD atomic charge density approx. for the potential
     extrapolated charge   32.01168, renormalised to   32.00000

     total cpu time spent up to now is        8.4 secs

     Self-consistent Calculation

     iteration #  1     ecut=    40.00 Ry     beta= 0.50
     Davidson diagonalization with overlap
     ethr =  1.00E-06,  avg # of iterations =  5.5

     total cpu time spent up to now is       10.4 secs

     total energy              =     -91.15731858 Ry
     Harris-Foulkes estimate   =     -91.14402225 Ry
     estimated scf accuracy    <       0.00117157 Ry

     iteration #  2     ecut=    40.00 Ry     beta= 0.50
     Davidson diagonalization with overlap
     ethr =  3.66E-06,  avg # of iterations =  1.0

     total cpu time spent up to now is       10.9 secs

     total energy              =     -91.15731512 Ry
     Harris-Foulkes estimate   =     -91.15739245 Ry
     estimated scf accuracy    <       0.00014205 Ry

     iteration #  3     ecut=    40.00 Ry     beta= 0.50
     Davidson diagonalization with overlap
     ethr =  4.44E-07,  avg # of iterations =  2.2

     total cpu time spent up to now is       11.8 secs

     total energy              =     -91.15734273 Ry
     Harris-Foulkes estimate   =     -91.15734307 Ry
     estimated scf accuracy    <       0.00000261 Ry

     iteration #  4     ecut=    40.00 Ry     beta= 0.50
     Davidson diagonalization with overlap
     ethr =  8.16E-09,  avg # of iterations =  2.2

     total cpu time spent up to now is       12.7 secs

     total energy              =     -91.15734329 Ry
     Harris-Foulkes estimate   =     -91.15734322 Ry
     estimated scf accuracy    <       0.00000059 Ry

     iteration #  5     ecut=    40.00 Ry     beta= 0.50
     Davidson diagonalization with overlap
     ethr =  1.85E-09,  avg # of iterations =  1.3

     total cpu time spent up to now is       13.4 secs

     total energy              =     -91.15734331 Ry
     Harris-Foulkes estimate   =     -91.15734335 Ry
     estimated scf accuracy    <       0.00000009 Ry

     iteration #  6     ecut=    40.00 Ry     beta= 0.50
     Davidson diagonalization with overlap
     ethr =  2.92E-10,  avg # of iterations =  2.0

     total cpu time spent up to now is       14.2 secs

     End of self-consistent calculation

          k = 0.0000 0.0000 0.0000 (  2361 PWs)   bands (ev):

   -14.0353 -12.4935 -12.4928  -8.6084  -7.8471  -1.9820  -1.9812  -1.6239
    -0.8982  -0.5924  -0.5916   0.5368   0.5386   2.2748   2.6857   3.2755
     6.9393   8.9376  12.6458  12.7963

          k =-0.0000-0.0001 0.5427 (  2371 PWs)   bands (ev):

   -13.3329 -11.8086 -11.8078  -8.0008  -7.3197  -3.3117  -2.7149  -2.7132
    -1.0162  -1.0145  -0.8149   0.2021   0.2044   0.3918   0.8629   4.1261
     6.6380   9.8332  11.4270  11.4290

          k =-0.0001-0.0001 1.0855 (  2343 PWs)   bands (ev):

   -11.2690  -9.8245  -9.8237  -8.1412  -6.3532  -6.3519  -6.1914  -4.7165
    -3.2614  -2.0976  -0.9658  -0.9651   1.4817   2.2459   2.2501   4.6047
     6.6156   7.9461   7.9497  10.4654

          k = 0.0169 0.4558-0.0006 (  2365 PWs)   bands (ev):

   -13.8358 -13.2941 -11.4156 -10.0094  -6.2274  -4.1454  -1.8017  -1.6781
    -0.7250  -0.2269   0.0754   1.1936   1.4602   1.6584   2.3120   2.6962
     7.9994  10.3178  10.4321  12.7861

          k = 0.0169 0.4557 0.5421 (  2352 PWs)   bands (ev):

   -13.1365 -12.6013 -10.7440  -9.3670  -5.8159  -4.0994  -3.0779  -2.3307
    -1.5336  -0.9812  -0.8553  -0.3848   0.3545   1.0126   1.9337   3.4476
     7.6281   9.5189  11.2790  13.1037

          k = 0.0169 0.4557 1.0849 (  2346 PWs)   bands (ev):

   -11.0829 -10.5734  -8.8862  -8.1742  -7.0243  -6.9667  -5.3747  -4.1789
    -3.6250  -2.1056  -1.3187  -0.6846   1.3397   1.4332   3.3634   4.1928
     6.9091   7.2370   9.2541  10.2206

          k = 0.0170 0.4559-1.0861 (  2345 PWs)   bands (ev):

   -11.0823 -10.5737  -8.8859  -8.1753  -7.0250  -6.9659  -5.3739  -4.1792
    -3.6255  -2.1049  -1.3182  -0.6852   1.3351   1.4344   3.3659   4.1960
     6.9126   7.2352   9.2512  10.2182

          k = 0.0170 0.4558-0.5433 (  2351 PWs)   bands (ev):

   -13.1362 -12.6014 -10.7441  -9.3673  -5.8155  -4.1002  -3.0787  -2.3295
    -1.5323  -0.9840  -0.8544  -0.3856   0.3535   1.0137   1.9360   3.4482
     7.6304   9.5165  11.2902  13.1012

          k =-0.5022-0.0066 0.0005 (  2372 PWs)   bands (ev):

   -13.6395 -13.6391 -10.6862 -10.6846  -5.2357  -5.2351  -1.4604  -1.4596
    -0.5197  -0.5178   0.9561   0.9588   1.3607   1.3622   1.9232   1.9266
     9.3940   9.3964  10.3184  10.3207

          k =-0.5022-0.0066 0.5432 (  2350 PWs)   bands (ev):

   -12.9413 -12.9407 -10.0308 -10.0291  -4.9603  -4.9592  -2.7908  -2.7892
    -0.9314  -0.9287  -0.6525  -0.6497   0.8024   0.8052   2.1250   2.1265
     8.8387   8.8415  11.1759  11.1858

          k =-0.5022-0.0067 1.0860 (  2349 PWs)   bands (ev):

   -10.8930 -10.8924  -8.4006  -8.3991  -7.1564  -7.1551  -4.7583  -4.7562
    -2.8697  -2.8691  -0.9225  -0.9210   1.5957   1.6006   3.5918   3.5946
     7.0461   7.0484   9.4609   9.4623

          k =-0.4852 0.4492-0.0001 (  2354 PWs)   bands (ev):

   -13.9139 -13.0060 -11.9935  -9.1843  -7.2298  -3.0530  -2.3804  -0.9019
    -0.8449  -0.4347   0.1159   0.2653   0.9896   2.1110   2.5859   2.9979
     7.5013  10.2978  11.4807  12.5393

          k =-0.4853 0.4492 0.5426 (  2350 PWs)   bands (ev):

   -13.2158 -12.3129 -11.3140  -8.5659  -6.7275  -3.3718  -3.2336  -2.1120
    -1.7352  -1.5425  -0.2729   0.1230   0.3436   0.9731   1.0375   3.7881
     7.0727  10.6146  11.1943  12.2541

          k =-0.4853 0.4491 1.0854 (  2356 PWs)   bands (ev):

   -11.1646 -10.2911  -9.3757  -8.0948  -6.7795  -6.4876  -5.8964  -4.3618
    -3.5775  -1.8192  -1.4467  -0.6893   0.8522   2.3851   2.9153   4.0955
     6.7115   7.9373   8.6958  10.3801

          k =-0.4852 0.4493-1.0856 (  2354 PWs)   bands (ev):

   -11.1643 -10.2908  -9.3764  -8.0949  -6.7789  -6.4884  -5.8964  -4.3613
    -3.5770  -1.8196  -1.4472  -0.6888   0.8492   2.3843   2.9182   4.0992
     6.7120   7.9407   8.6895  10.3783

          k =-0.4852 0.4493-0.5428 (  2348 PWs)   bands (ev):

   -13.2157 -12.3127 -11.3144  -8.5659  -6.7277  -3.3707  -3.2336  -2.1127
    -1.7363  -1.5442  -0.2717   0.1241   0.3431   0.9721   1.0397   3.7899
     7.0727  10.6155  11.1965  12.2505

     the Fermi energy is     4.8171 ev

!    total energy              =     -91.15734333 Ry
     Harris-Foulkes estimate   =     -91.15734333 Ry
     estimated scf accuracy    <          2.3E-09 Ry

     The total energy is the sum of the following terms:

     one-electron contribution =     -46.57241850 Ry
     hartree contribution      =      37.23651584 Ry
     xc contribution           =     -27.96213779 Ry
     ewald contribution        =     -53.85982150 Ry
     smearing contrib. (-TS)   =       0.00051863 Ry

     convergence has been achieved in   6 iterations

     Forces acting on atoms (cartesian axes, Ry/au):

     atom    1 type  1   force =     0.02430424   -0.01855222   -0.00029614
     atom    2 type  1   force =     0.02431347   -0.01854567   -0.00002525
     atom    3 type  1   force =    -0.02414959    0.01811042    0.00022271
     atom    4 type  1   force =    -0.02448099    0.01863758    0.00009419
     atom    5 type  1   force =    -0.02440156    0.01873465    0.00018373
     atom    6 type  1   force =     0.02446325   -0.01865361   -0.00015542
     atom    7 type  1   force =    -0.02385632    0.01818409    0.00002973
     atom    8 type  1   force =     0.02380750   -0.01791524   -0.00005355

     Total force =     0.086072     Total SCF correction =     0.000051


     Computing stress (Cartesian axis) and pressure

          total   stress  (Ry/bohr**3)                   (kbar)     P=        0.01
   0.00014738  -0.00011663   0.00000047           21.68      -17.16        0.07
  -0.00011663   0.00007464  -0.00000081          -17.16       10.98       -0.12
   0.00000047  -0.00000081  -0.00022186            0.07       -0.12      -32.64


     number of scf cycles    =   2
     number of bfgs steps    =   1

     enthalpy old            =     -91.1582008209 Ry
     enthalpy new            =     -91.1573058799 Ry

     CASE: enthalpy_new > enthalpy_old

     new trust radius        =       0.0100543143 bohr
     new conv_thr            =       0.0000000100 Ry

     new unit-cell volume =    550.74085 a.u.^3 (    81.61137 Ang^3 )
     density =      1.95330 g/cm^3

CELL_PARAMETERS (bohr)
  12.681692670  -0.486825833   0.000749483
  -0.133604243   9.308816602   0.000769823
   0.004481848   0.005833164   4.667829735

ATOMIC_POSITIONS (crystal)
C             0.2802993613        0.4264436063        0.3001077167
C             0.7801337730        0.9261812550        0.3000426646
C             0.3640598382        0.3426960220        0.8001121470
C             0.8638754821        0.8423954534       -0.1999611588
C             0.1139389472        0.5924798787        0.3000756269
C             0.0301817035        0.6762639206        0.8000689246
C             0.6138902408        1.0924102995        0.3000679518
C             0.5301616539        0.1762305645        0.8000821272



     Writing output data file ./pp.save/
     NEW-OLD atomic charge density approx. for the potential
     extrapolated charge   31.99323, renormalised to   32.00000

     total cpu time spent up to now is       14.2 secs

     Self-consistent Calculation

     iteration #  1     ecut=    40.00 Ry     beta= 0.50
     Davidson diagonalization with overlap
     ethr =  1.00E-06,  avg # of iterations =  4.8

     total cpu time spent up to now is       16.0 secs

     total energy              =     -91.15899739 Ry
     Harris-Foulkes estimate   =     -91.16726195 Ry
     estimated scf accuracy    <       0.00042391 Ry

     iteration #  2     ecut=    40.00 Ry     beta= 0.50
     Davidson diagonalization with overlap
     ethr =  1.32E-06,  avg # of iterations =  1.3

     total cpu time spent up to now is       16.7 secs

     total energy              =     -91.15899922 Ry
     Harris-Foulkes estimate   =     -91.15902656 Ry
     estimated scf accuracy    <       0.00005034 Ry

     iteration #  3     ecut=    40.00 Ry     beta= 0.50
     Davidson diagonalization with overlap
     ethr =  1.57E-07,  avg # of iterations =  2.0

     total cpu time spent up to now is       17.6 secs

     total energy              =     -91.15900951 Ry
     Harris-Foulkes estimate   =     -91.15900961 Ry
     estimated scf accuracy    <       0.00000095 Ry

     iteration #  4     ecut=    40.00 Ry     beta= 0.50
     Davidson diagonalization with overlap
     ethr =  2.98E-09,  avg # of iterations =  2.2

     total cpu time spent up to now is       18.6 secs

     total energy              =     -91.15900974 Ry
     Harris-Foulkes estimate   =     -91.15900971 Ry
     estimated scf accuracy    <       0.00000022 Ry

     iteration #  5     ecut=    40.00 Ry     beta= 0.50
     Davidson diagonalization with overlap
     ethr =  7.03E-10,  avg # of iterations =  1.1

     total cpu time spent up to now is       19.3 secs

     total energy              =     -91.15900975 Ry
     Harris-Foulkes estimate   =     -91.15900976 Ry
     estimated scf accuracy    <       0.00000001 Ry

     iteration #  6     ecut=    40.00 Ry     beta= 0.50
     Davidson diagonalization with overlap
     ethr =  3.64E-11,  avg # of iterations =  3.0

     total cpu time spent up to now is       20.5 secs

     End of self-consistent calculation

          k = 0.0000 0.0000 0.0000 (  2361 PWs)   bands (ev):

   -14.0361 -12.5002 -12.4998  -8.7169  -7.7357  -1.9308  -1.9304  -1.6242
    -0.9083  -0.6108  -0.6103   0.4835   0.4843   2.4374   2.5266   3.1425
     7.0777   8.9371  12.7593  12.8029

          k =-0.0000-0.0000 0.5445 (  2371 PWs)   bands (ev):

   -13.3299 -11.8115 -11.8111  -8.1106  -7.1896  -3.3341  -2.6607  -2.6602
    -1.0680  -1.0675  -0.8054   0.1955   0.1975   0.2517   1.0175   4.0001
     6.7806   9.8416  11.4606  11.4630

          k =-0.0001-0.0001 1.0889 (  2343 PWs)   bands (ev):

   -11.2528  -9.8090  -9.8085  -8.0780  -6.3629  -6.3623  -6.3058  -4.6604
    -3.3847  -1.9752  -0.9650  -0.9647   1.5230   2.2866   2.2900   4.7043
     6.5108   7.9154   7.9197  10.3962

          k = 0.0175 0.4553-0.0006 (  2365 PWs)   bands (ev):

   -13.8373 -13.2976 -11.4280 -10.0345  -6.1953  -4.1133  -1.8035  -1.6853
    -0.7397  -0.2557   0.1632   1.1517   1.3692   1.7947   2.1766   2.6073
     8.0975  10.3689  10.4292  12.7870

          k = 0.0174 0.4552 0.5439 (  2352 PWs)   bands (ev):

   -13.1342 -12.6011 -10.7524  -9.3879  -5.7657  -4.0388  -3.1098  -2.3860
    -1.5130  -0.9733  -0.8525  -0.4139   0.3376   1.0527   1.9085   3.3788
     7.7146   9.5646  11.2870  13.1287

          k = 0.0174 0.4552 1.0883 (  2346 PWs)   bands (ev):

   -11.0671 -10.5587  -8.8601  -8.1073  -7.0452  -7.0411  -5.3931  -4.2261
    -3.6131  -2.1063  -1.2731  -0.6709   1.3796   1.4706   3.4200   4.2716
     6.8244   7.1827   9.2156  10.1599

          k = 0.0175 0.4554-1.0895 (  2345 PWs)   bands (ev):

   -11.0667 -10.5588  -8.8604  -8.1077  -7.0450  -7.0413  -5.3927  -4.2260
    -3.6132  -2.1061  -1.2731  -0.6710   1.3747   1.4723   3.4216   4.2757
     6.8269   7.1820   9.2121  10.1580

          k = 0.0175 0.4553-0.5450 (  2351 PWs)   bands (ev):

   -13.1339 -12.6012 -10.7526  -9.3880  -5.7658  -4.0387  -3.1102  -2.3858
    -1.5126  -0.9761  -0.8514  -0.4139   0.3377   1.0528   1.9104   3.3798
     7.7164   9.5629  11.2982  13.1261

          k =-0.5013-0.0072 0.0005 (  2372 PWs)   bands (ev):

   -13.6419 -13.6413 -10.7026 -10.7023  -5.2067  -5.2063  -1.4649  -1.4641
    -0.5394  -0.5389   1.0694   1.0695   1.3084   1.3088   1.8112   1.8112
     9.4548   9.4548  10.3138  10.3161

          k =-0.5013-0.0072 0.5449 (  2350 PWs)   bands (ev):

   -12.9398 -12.9392 -10.0431 -10.0428  -4.9072  -4.9067  -2.8331  -2.8326
    -0.9308  -0.9306  -0.6467  -0.6440   0.8113   0.8114   2.0890   2.0894
     8.8965   8.8991  11.1809  11.1909

          k =-0.5013-0.0073 1.0894 (  2349 PWs)   bands (ev):

   -10.8778 -10.8771  -8.3515  -8.3511  -7.2034  -7.2029  -4.7868  -4.7866
    -2.8664  -2.8661  -0.8955  -0.8953   1.6363   1.6408   3.6468   3.6481
     6.9954   6.9988   9.4141   9.4143

          k =-0.4838 0.4481-0.0001 (  2354 PWs)   bands (ev):

   -13.9149 -13.0109 -12.0027  -9.2316  -7.1787  -3.0134  -2.3804  -0.8564
    -0.8340  -0.4486   0.0764   0.2371   0.9187   2.2659   2.4334   2.8891
     7.6193  10.2887  11.5061  12.5381

          k =-0.4838 0.4480 0.5444 (  2350 PWs)   bands (ev):

   -13.2131 -12.3140 -11.3195  -8.6091  -6.6622  -3.3086  -3.2584  -2.0750
    -1.7953  -1.5333  -0.3077   0.0450   0.3417   1.0225   1.0645   3.6968
     7.1821  10.6508  11.1912  12.2704

          k =-0.4839 0.4480 1.0888 (  2356 PWs)   bands (ev):

   -11.1487 -10.2762  -9.3574  -8.0286  -6.7910  -6.5818  -5.9090  -4.3296
    -3.6605  -1.7373  -1.4483  -0.6831   0.8912   2.4275   2.9572   4.1845
     6.6141   7.9012   8.6531  10.3151

          k =-0.4837 0.4482-1.0890 (  2354 PWs)   bands (ev):

   -11.1484 -10.2761  -9.3578  -8.0289  -6.7910  -6.5819  -5.9086  -4.3294
    -3.6602  -1.7374  -1.4483  -0.6831   0.8883   2.4260   2.9610   4.1876
     6.6152   7.9033   8.6478  10.3132

          k =-0.4838 0.4481-0.5445 (  2348 PWs)   bands (ev):

   -13.2130 -12.3139 -11.3197  -8.6093  -6.6621  -3.3086  -3.2587  -2.0748
    -1.7954  -1.5350  -0.3076   0.0452   0.3410   1.0250   1.0644   3.6981
     7.1826  10.6510  11.1933  12.2673

     the Fermi energy is     4.9311 ev

!    total energy              =     -91.15900975 Ry
     Harris-Foulkes estimate   =     -91.15900976 Ry
     estimated scf accuracy    <          8.5E-10 Ry

     The total energy is the sum of the following terms:

     one-electron contribution =     -46.60145085 Ry
     hartree contribution      =      37.25392198 Ry
     xc contribution           =     -27.96327138 Ry
     ewald contribution        =     -53.84860970 Ry
     smearing contrib. (-TS)   =       0.00040019 Ry

     convergence has been achieved in   6 iterations

     Forces acting on atoms (cartesian axes, Ry/au):

     atom    1 type  1   force =     0.00065601   -0.00051027   -0.00000574
     atom    2 type  1   force =     0.00073457   -0.00060878    0.00002068
     atom    3 type  1   force =    -0.00102172    0.00033381   -0.00005935
     atom    4 type  1   force =    -0.00067254    0.00055726    0.00003820
     atom    5 type  1   force =    -0.00066789    0.00078184   -0.00000575
     atom    6 type  1   force =     0.00074430   -0.00069934    0.00000752
     atom    7 type  1   force =    -0.00082965    0.00054518    0.00002525
     atom    8 type  1   force =     0.00105691   -0.00039971   -0.00002081

     Total force =     0.002809     Total SCF correction =     0.000046


     Computing stress (Cartesian axis) and pressure

          total   stress  (Ry/bohr**3)                   (kbar)     P=       -0.25
  -0.00001760   0.00000952  -0.00000003           -2.59        1.40       -0.00
   0.00000952  -0.00002071   0.00000009            1.40       -3.05        0.01
  -0.00000003   0.00000009   0.00003324           -0.00        0.01        4.89


     number of scf cycles    =   3
     number of bfgs steps    =   1

     enthalpy old            =     -91.1582008209 Ry
     enthalpy new            =     -91.1589723162 Ry

     CASE: enthalpy_new < enthalpy_old

     new trust radius        =       0.0040255310 bohr
     new conv_thr            =       0.0000000001 Ry

     new unit-cell volume =    550.66472 a.u.^3 (    81.60009 Ang^3 )
     density =      1.95357 g/cm^3

CELL_PARAMETERS (bohr)
  12.675726260  -0.483373305   0.000740383
  -0.131202405   9.303808426   0.000791579
   0.004478043   0.005841744   4.671833181

ATOMIC_POSITIONS (crystal)
C             0.2803453587        0.4263966396        0.3001066751
C             0.7801859167        0.9261238935        0.3000472015
C             0.3639843467        0.3427222915        0.8000990184
C             0.8638282635        0.8424474406       -0.1999528720
C             0.1138923699        0.5925563468        0.3000742339
C             0.0302344804        0.6761967543        0.8000706826
C             0.6138302937        1.0924604263        0.3000734563
C             0.5302399704        0.1761972074        0.8000776041



     Writing output data file ./pp.save/
     NEW-OLD atomic charge density approx. for the potential
     extrapolated charge   31.99558, renormalised to   32.00000

     total cpu time spent up to now is       20.6 secs

     Self-consistent Calculation

     iteration #  1     ecut=    40.00 Ry     beta= 0.50
     Davidson diagonalization with overlap
     ethr =  1.00E-06,  avg # of iterations =  2.0

     Threshold (ethr) on eigenvalues was too large:
     Diagonalizing with lowered threshold

     Davidson diagonalization with overlap
     ethr =  1.99E-09,  avg # of iterations =  3.9

     total cpu time spent up to now is       23.1 secs

     total energy              =     -91.15902471 Ry
     Harris-Foulkes estimate   =     -91.16428300 Ry
     estimated scf accuracy    <       0.00000061 Ry

     iteration #  2     ecut=    40.00 Ry     beta= 0.50
     Davidson diagonalization with overlap
     ethr =  1.89E-09,  avg # of iterations =  2.0

     total cpu time spent up to now is       24.2 secs

     total energy              =     -91.15902521 Ry
     Harris-Foulkes estimate   =     -91.15902529 Ry
     estimated scf accuracy    <       0.00000030 Ry

     iteration #  3     ecut=    40.00 Ry     beta= 0.50
     Davidson diagonalization with overlap
     ethr =  9.22E-10,  avg # of iterations =  1.0

     total cpu time spent up to now is       25.0 secs

     total energy              =     -91.15902520 Ry
     Harris-Foulkes estimate   =     -91.15902523 Ry
     estimated scf accuracy    <       0.00000008 Ry

     iteration #  4     ecut=    40.00 Ry     beta= 0.50
     Davidson diagonalization with overlap
     ethr =  2.52E-10,  avg # of iterations =  2.0

     total cpu time spent up to now is       26.1 secs

     total energy              =     -91.15902522 Ry
     Harris-Foulkes estimate   =     -91.15902522 Ry
     estimated scf accuracy    <          3.3E-09 Ry

     iteration #  5     ecut=    40.00 Ry     beta= 0.50
     Davidson diagonalization with overlap
     ethr =  1.03E-11,  avg # of iterations =  2.0

     total cpu time spent up to now is       27.3 secs

     total energy              =     -91.15902522 Ry
     Harris-Foulkes estimate   =     -91.15902522 Ry
     estimated scf accuracy    <          8.5E-10 Ry

     iteration #  6     ecut=    40.00 Ry     beta= 0.50
     Davidson diagonalization with overlap
     ethr =  2.66E-12,  avg # of iterations =  2.0

     total cpu time spent up to now is       28.6 secs

     total energy              =     -91.15902522 Ry
     Harris-Foulkes estimate   =     -91.15902522 Ry
     estimated scf accuracy    <          1.1E-10 Ry

     iteration #  7     ecut=    40.00 Ry     beta= 0.50
     Davidson diagonalization with overlap
     ethr =  3.59E-13,  avg # of iterations =  1.8

     total cpu time spent up to now is       29.7 secs

     End of self-consistent calculation

          k = 0.0000 0.0000 0.0000 (  2361 PWs)   bands (ev):

   -14.0335 -12.4949 -12.4947  -8.7019  -7.7285  -1.9129  -1.9126  -1.6209
    -0.9299  -0.6063  -0.6058   0.4642   0.4649   2.4558   2.5105   3.1512
     7.0878   8.9402  12.7177  12.8121

          k =-0.0000-0.0000 0.5440 (  2371 PWs)   bands (ev):

   -13.3286 -11.8076 -11.8072  -8.0971  -7.1847  -3.3483  -2.6647  -2.6642
    -1.0606  -1.0602  -0.8034   0.1985   0.2006   0.2434   1.0287   4.0074
     6.7853   9.8429  11.4589  11.4613

          k =-0.0001-0.0001 1.0880 (  2343 PWs)   bands (ev):

   -11.2555  -9.8094  -9.8089  -8.0866  -6.3674  -6.3668  -6.2967  -4.6544
    -3.3828  -1.9692  -0.9511  -0.9509   1.5217   2.2856   2.2892   4.7011
     6.5141   7.9104   7.9147  10.3944

          k = 0.0174 0.4555-0.0006 (  2365 PWs)   bands (ev):

   -13.8343 -13.2937 -11.4210 -10.0249  -6.1827  -4.0976  -1.8007  -1.6825
    -0.7610  -0.2762   0.1823   1.1585   1.3512   1.8135   2.1599   2.6155
     8.1082  10.3795  10.4340  12.7865

          k = 0.0173 0.4555 0.5434 (  2352 PWs)   bands (ev):

   -13.1325 -12.5985 -10.7468  -9.3796  -5.7567  -4.0332  -3.1225  -2.3915
    -1.5201  -0.9718  -0.8510  -0.4208   0.3496   1.0635   1.9137   3.3853
     7.7192   9.5665  11.2900  13.1256

          k = 0.0173 0.4554 1.0874 (  2346 PWs)   bands (ev):

   -11.0695 -10.5601  -8.8599  -8.1130  -7.0498  -7.0378  -5.3959  -4.2264
    -3.6035  -2.0937  -1.2646  -0.6587   1.3777   1.4686   3.4193   4.2693
     6.8256   7.1795   9.2123  10.1580

          k = 0.0174 0.4556-1.0886 (  2345 PWs)   bands (ev):

   -11.0690 -10.5603  -8.8601  -8.1135  -7.0496  -7.0380  -5.3955  -4.2263
    -3.6036  -2.0935  -1.2645  -0.6588   1.3728   1.4702   3.4209   4.2734
     6.8281   7.1788   9.2089  10.1560

          k = 0.0174 0.4556-0.5446 (  2351 PWs)   bands (ev):

   -13.1322 -12.5986 -10.7469  -9.3797  -5.7567  -4.0331  -3.1229  -2.3912
    -1.5198  -0.9746  -0.8500  -0.4208   0.3497   1.0636   1.9157   3.3863
     7.7210   9.5647  11.3012  13.1229

          k =-0.5015-0.0071 0.0005 (  2372 PWs)   bands (ev):

   -13.6385 -13.6381 -10.6942 -10.6941  -5.1923  -5.1922  -1.4614  -1.4605
    -0.5604  -0.5599   1.0883   1.0887   1.3152   1.3153   1.7937   1.7942
     9.4651   9.4656  10.3179  10.3203

          k =-0.5015-0.0071 0.5445 (  2350 PWs)   bands (ev):

   -12.9378 -12.9373 -10.0360 -10.0359  -4.8986  -4.8984  -2.8433  -2.8429
    -0.9379  -0.9375  -0.6446  -0.6418   0.8228   0.8232   2.0942   2.0944
     8.9000   8.9025  11.1833  11.1932

          k =-0.5016-0.0072 1.0885 (  2349 PWs)   bands (ev):

   -10.8798 -10.8792  -8.3530  -8.3529  -7.2053  -7.2049  -4.7883  -4.7880
    -2.8551  -2.8550  -0.8850  -0.8849   1.6349   1.6394   3.6461   3.6475
     6.9933   6.9967   9.4104   9.4107

          k =-0.4841 0.4484-0.0001 (  2354 PWs)   bands (ev):

   -13.9120 -13.0066 -11.9966  -9.2198  -7.1685  -2.9965  -2.3783  -0.8778
    -0.8154  -0.4439   0.0564   0.2423   0.9001   2.2844   2.4171   2.8980
     7.6297  10.2940  11.5166  12.5437

          k =-0.4842 0.4484 0.5439 (  2350 PWs)   bands (ev):

   -13.2116 -12.3110 -11.3147  -8.5988  -6.6544  -3.3085  -3.2723  -2.0814
    -1.7936  -1.5326  -0.2968   0.0377   0.3450   1.0262   1.0749   3.7041
     7.1859  10.6528  11.1948  12.2690

          k =-0.4842 0.4483 1.0879 (  2356 PWs)   bands (ev):

   -11.1511 -10.2773  -9.3573  -8.0366  -6.7960  -6.5744  -5.9128  -4.3221
    -3.6594  -1.7305  -1.4347  -0.6697   0.8885   2.4271   2.9568   4.1803
     6.6168   7.8977   8.6490  10.3135

          k =-0.4841 0.4485-1.0881 (  2354 PWs)   bands (ev):

   -11.1508 -10.2772  -9.3577  -8.0370  -6.7960  -6.5746  -5.9124  -4.3219
    -3.6591  -1.7306  -1.4347  -0.6696   0.8856   2.4257   2.9606   4.1834
     6.6180   7.8999   8.6436  10.3116

          k =-0.4841 0.4485-0.5441 (  2348 PWs)   bands (ev):

   -13.2114 -12.3109 -11.3150  -8.5989  -6.6544  -3.3085  -3.2725  -2.0812
    -1.7937  -1.5343  -0.2967   0.0380   0.3443   1.0287   1.0748   3.7054
     7.1864  10.6530  11.1968  12.2659

     the Fermi energy is     4.9278 ev

!    total energy              =     -91.15902522 Ry
     Harris-Foulkes estimate   =     -91.15902522 Ry
     estimated scf accuracy    <          2.0E-11 Ry

     The total energy is the sum of the following terms:

     one-electron contribution =     -46.54555075 Ry
     hartree contribution      =      37.22761139 Ry
     xc contribution           =     -27.96221921 Ry
     ewald contribution        =     -53.87926801 Ry
     smearing contrib. (-TS)   =       0.00040135 Ry

     convergence has been achieved in   7 iterations

     Forces acting on atoms (cartesian axes, Ry/au):

     atom    1 type  1   force =    -0.00020069    0.00007726   -0.00005740
     atom    2 type  1   force =    -0.00014618    0.00007973    0.00003455
     atom    3 type  1   force =     0.00006868   -0.00030335    0.00000103
     atom    4 type  1   force =     0.00015960   -0.00012932    0.00001790
     atom    5 type  1   force =     0.00022635   -0.00002140    0.00000848
     atom    6 type  1   force =    -0.00018809    0.00013156    0.00000009
     atom    7 type  1   force =     0.00026147   -0.00016366   -0.00001483
     atom    8 type  1   force =    -0.00018114    0.00032918    0.00001019

     Total force =     0.000748     Total SCF correction =     0.000003


     Computing stress (Cartesian axis) and pressure

          total   stress  (Ry/bohr**3)                   (kbar)     P=       -0.69
   0.00000283  -0.00000591   0.00000001            0.42       -0.87        0.00
  -0.00000591  -0.00000877  -0.00000003           -0.87       -1.29       -0.00
   0.00000001  -0.00000003  -0.00000822            0.00       -0.00       -1.21


     number of scf cycles    =   4
     number of bfgs steps    =   2

     enthalpy old            =     -91.1589723162 Ry
     enthalpy new            =     -91.1589877876 Ry

     CASE: enthalpy_new < enthalpy_old

     new trust radius        =       0.0011837610 bohr
     new conv_thr            =            1.0E-10 Ry

     new unit-cell volume =    550.48761 a.u.^3 (    81.57385 Ang^3 )
     density =      1.95420 g/cm^3

CELL_PARAMETERS (bohr)
  12.676247948  -0.484744888   0.000743706
  -0.132298011   9.301743520   0.000787300
   0.004478707   0.005837860   4.671203727

ATOMIC_POSITIONS (crystal)
C             0.2803360531        0.4263986677        0.3000957457
C             0.7801807234        0.9261257321        0.3000539695
C             0.3639825837        0.3426973033        0.8000984870
C             0.8638346019        0.8424406838       -0.1999489925
C             0.1139034664        0.5925614227        0.3000757841
C             0.0302265108        0.6762027118        0.8000707710
C             0.6138428938        1.0924506873        0.3000709934
C             0.5302341669        0.1762237913        0.8000792419



     Writing output data file ./pp.save/
     NEW-OLD atomic charge density approx. for the potential
     extrapolated charge   31.98970, renormalised to   32.00000

     total cpu time spent up to now is       29.8 secs

     Self-consistent Calculation

     iteration #  1     ecut=    40.00 Ry     beta= 0.50
     Davidson diagonalization with overlap
     ethr =  1.00E-06,  avg # of iterations =  2.0

     Threshold (ethr) on eigenvalues was too large:
     Diagonalizing with lowered threshold

     Davidson diagonalization with overlap
     ethr =  4.68E-09,  avg # of iterations =  1.6

     total cpu time spent up to now is       32.1 secs

     total energy              =     -91.15902464 Ry
     Harris-Foulkes estimate   =     -91.17125310 Ry
     estimated scf accuracy    <       0.00000152 Ry

     iteration #  2     ecut=    40.00 Ry     beta= 0.50
     Davidson diagonalization with overlap
     ethr =  4.76E-09,  avg # of iterations =  3.0

     total cpu time spent up to now is       33.8 secs

     total energy              =     -91.15902777 Ry
     Harris-Foulkes estimate   =     -91.15902809 Ry
     estimated scf accuracy    <       0.00000096 Ry

     iteration #  3     ecut=    40.00 Ry     beta= 0.50
     Davidson diagonalization with overlap
     ethr =  3.01E-09,  avg # of iterations =  1.0

     total cpu time spent up to now is       34.8 secs

     total energy              =     -91.15902758 Ry
     Harris-Foulkes estimate   =     -91.15902780 Ry
     estimated scf accuracy    <       0.00000034 Ry

     iteration #  4     ecut=    40.00 Ry     beta= 0.50
     Davidson diagonalization with overlap
     ethr =  1.05E-09,  avg # of iterations =  2.0

     total cpu time spent up to now is       36.3 secs

     total energy              =     -91.15902765 Ry
     Harris-Foulkes estimate   =     -91.15902766 Ry
     estimated scf accuracy    <       0.00000002 Ry

     iteration #  5     ecut=    40.00 Ry     beta= 0.50
     Davidson diagonalization with overlap
     ethr =  4.82E-11,  avg # of iterations =  1.2

     total cpu time spent up to now is       37.4 secs

     total energy              =     -91.15902765 Ry
     Harris-Foulkes estimate   =     -91.15902766 Ry
     estimated scf accuracy    <          4.9E-09 Ry

     iteration #  6     ecut=    40.00 Ry     beta= 0.50
     Davidson diagonalization with overlap
     ethr =  1.52E-11,  avg # of iterations =  1.0

     total cpu time spent up to now is       38.4 secs

     total energy              =     -91.15902765 Ry
     Harris-Foulkes estimate   =     -91.15902765 Ry
     estimated scf accuracy    <          1.8E-09 Ry

     iteration #  7     ecut=    40.00 Ry     beta= 0.50
     Davidson diagonalization with overlap
     ethr =  5.75E-12,  avg # of iterations =  2.0

     total cpu time spent up to now is       40.0 secs

     End of self-consistent calculation

          k = 0.0000 0.0000 0.0000 (  2361 PWs)   bands (ev):

   -14.0313 -12.4928 -12.4927  -8.7005  -7.7268  -1.9119  -1.9118  -1.6178
    -0.9241  -0.6041  -0.6039   0.4702   0.4703   2.4567   2.5162   3.1530
     7.0892   8.9440  12.7269  12.8153

          k =-0.0000-0.0000 0.5441 (  2371 PWs)   bands (ev):

   -13.3263 -11.8053 -11.8050  -8.0955  -7.1826  -3.3436  -2.6609  -2.6607
    -1.0582  -1.0581  -0.8002   0.2009   0.2028   0.2480   1.0303   4.0094
     6.7877   9.8468  11.4630  11.4654

          k =-0.0001-0.0001 1.0881 (  2343 PWs)   bands (ev):

   -11.2525  -9.8064  -9.8060  -8.0827  -6.3638  -6.3633  -6.2945  -4.6525
    -3.3797  -1.9671  -0.9497  -0.9496   1.5254   2.2886   2.2921   4.7050
     6.5168   7.9144   7.9188  10.3982

          k = 0.0174 0.4556-0.0006 (  2365 PWs)   bands (ev):

   -13.8321 -13.2915 -11.4192 -10.0232  -6.1813  -4.0965  -1.7983  -1.6807
    -0.7553  -0.2705   0.1831   1.1613   1.3569   1.8144   2.1655   2.6179
     8.1099  10.3820  10.4390  12.7903

          k = 0.0174 0.4556 0.5435 (  2352 PWs)   bands (ev):

   -13.1301 -12.5960 -10.7447  -9.3778  -5.7548  -4.0308  -3.1180  -2.3877
    -1.5160  -0.9692  -0.8490  -0.4166   0.3513   1.0654   1.9167   3.3880
     7.7217   9.5698  11.2951  13.1303

          k = 0.0174 0.4555 1.0875 (  2346 PWs)   bands (ev):

   -11.0664 -10.5571  -8.8571  -8.1094  -7.0463  -7.0353  -5.3925  -4.2232
    -3.6018  -2.0922  -1.2626  -0.6571   1.3809   1.4713   3.4227   4.2729
     6.8290   7.1833   9.2168  10.1621

          k = 0.0175 0.4557-1.0887 (  2345 PWs)   bands (ev):

   -11.0660 -10.5573  -8.8573  -8.1098  -7.0461  -7.0355  -5.3922  -4.2231
    -3.6018  -2.0921  -1.2626  -0.6572   1.3760   1.4729   3.4242   4.2770
     6.8314   7.1827   9.2133  10.1601

          k = 0.0175 0.4557-0.5446 (  2351 PWs)   bands (ev):

   -13.1298 -12.5961 -10.7449  -9.3779  -5.7549  -4.0307  -3.1183  -2.3875
    -1.5157  -0.9720  -0.8480  -0.4166   0.3514   1.0654   1.9187   3.3890
     7.7235   9.5681  11.3063  13.1276

          k =-0.5015-0.0071 0.0005 (  2372 PWs)   bands (ev):

   -13.6363 -13.6361 -10.6924 -10.6922  -5.1912  -5.1910  -1.4588  -1.4578
    -0.5544  -0.5544   1.0892   1.0895   1.3167   1.3170   1.7995   1.7997
     9.4676   9.4677  10.3219  10.3242

          k =-0.5015-0.0072 0.5445 (  2350 PWs)   bands (ev):

   -12.9354 -12.9351 -10.0340 -10.0338  -4.8966  -4.8964  -2.8390  -2.8387
    -0.9337  -0.9334  -0.6417  -0.6389   0.8246   0.8249   2.0960   2.0964
     8.9032   8.9058  11.1874  11.1974

          k =-0.5016-0.0072 1.0886 (  2349 PWs)   bands (ev):

   -10.8768 -10.8763  -8.3499  -8.3496  -7.2021  -7.2018  -4.7849  -4.7847
    -2.8535  -2.8534  -0.8833  -0.8831   1.6384   1.6429   3.6491   3.6504
     6.9971   7.0005   9.4143   9.4145

          k =-0.4841 0.4485-0.0001 (  2354 PWs)   bands (ev):

   -13.9097 -13.0046 -11.9947  -9.2183  -7.1670  -2.9954  -2.3764  -0.8721
    -0.8145  -0.4410   0.0621   0.2443   0.9057   2.2853   2.4227   2.9004
     7.6322  10.2977  11.5189  12.5497

          k =-0.4841 0.4484 0.5440 (  2350 PWs)   bands (ev):

   -13.2091 -12.3087 -11.3125  -8.5970  -6.6526  -3.3054  -3.2676  -2.0775
    -1.7908  -1.5305  -0.2949   0.0421   0.3481   1.0284   1.0767   3.7067
     7.1890  10.6562  11.1986  12.2729

          k =-0.4841 0.4484 1.0880 (  2356 PWs)   bands (ev):

   -11.1480 -10.2745  -9.3544  -8.0327  -6.7925  -6.5722  -5.9093  -4.3203
    -3.6562  -1.7285  -1.4333  -0.6682   0.8913   2.4307   2.9598   4.1836
     6.6202   7.9019   8.6529  10.3177

          k =-0.4840 0.4486-1.0882 (  2354 PWs)   bands (ev):

   -11.1477 -10.2744  -9.3548  -8.0330  -6.7926  -6.5723  -5.9089  -4.3201
    -3.6560  -1.7286  -1.4333  -0.6682   0.8884   2.4292   2.9636   4.1868
     6.6214   7.9041   8.6476  10.3159

          k =-0.4840 0.4485-0.5442 (  2348 PWs)   bands (ev):

   -13.2089 -12.3087 -11.3128  -8.5972  -6.6525  -3.3054  -3.2678  -2.0772
    -1.7908  -1.5321  -0.2949   0.0423   0.3474   1.0310   1.0766   3.7080
     7.1896  10.6564  11.2007  12.2698

     the Fermi energy is     4.9318 ev

!    total energy              =     -91.15902765 Ry
     Harris-Foulkes estimate   =     -91.15902765 Ry
     estimated scf accuracy    <          9.4E-11 Ry

     The total energy is the sum of the following terms:

     one-electron contribution =     -46.50545091 Ry
     hartree contribution      =      37.21122634 Ry
     xc contribution           =     -27.96292915 Ry
     ewald contribution        =     -53.90227424 Ry
     smearing contrib. (-TS)   =       0.00040031 Ry

     convergence has been achieved in   7 iterations

     Forces acting on atoms (cartesian axes, Ry/au):

     atom    1 type  1   force =    -0.00010247   -0.00001532   -0.00000154
     atom    2 type  1   force =    -0.00004450    0.00001545    0.00001432
     atom    3 type  1   force =    -0.00007579   -0.00010685   -0.00003977
     atom    4 type  1   force =     0.00005990   -0.00006529    0.00002450
     atom    5 type  1   force =     0.00010347    0.00001235   -0.00001022
     atom    6 type  1   force =    -0.00004915    0.00006848    0.00001046
     atom    7 type  1   force =     0.00004395    0.00003900    0.00001038
     atom    8 type  1   force =     0.00006460    0.00005218   -0.00000812

     Total force =     0.000263     Total SCF correction =     0.000003


     Computing stress (Cartesian axis) and pressure

          total   stress  (Ry/bohr**3)                   (kbar)     P=       -0.41
   0.00000200  -0.00000528  -0.00000002            0.29       -0.78       -0.00
  -0.00000528  -0.00000929   0.00000001           -0.78       -1.37        0.00
  -0.00000002   0.00000001  -0.00000114           -0.00        0.00       -0.17


     number of scf cycles    =   5
     number of bfgs steps    =   3

     enthalpy old            =     -91.1589877876 Ry
     enthalpy new            =     -91.1589902318 Ry

     CASE: enthalpy_new < enthalpy_old

     new trust radius        =       0.0013022713 bohr
     new conv_thr            =            1.0E-10 Ry

     new unit-cell volume =    550.33818 a.u.^3 (    81.55170 Ang^3 )
     density =      1.95473 g/cm^3

CELL_PARAMETERS (bohr)
  12.676672332  -0.486130457   0.000740837
  -0.133412885   9.299426703   0.000788043
   0.004477133   0.005836248   4.670972118

ATOMIC_POSITIONS (crystal)
C             0.2803284858        0.4263971713        0.3000905950
C             0.7801778092        0.9261258217        0.3000589167
C             0.3639761941        0.3426799316        0.8000929841
C             0.8638388396        0.8424352137       -0.1999439970
C             0.1139118684        0.5925668954        0.3000751899
C             0.0302221921        0.6762075524        0.8000721444
C             0.6138489157        1.0924500946        0.3000713161
C             0.5302366952        0.1762383193        0.8000788510



     Writing output data file ./pp.save/
     NEW-OLD atomic charge density approx. for the potential
     extrapolated charge   31.99131, renormalised to   32.00000

     total cpu time spent up to now is       40.1 secs

     Self-consistent Calculation

     iteration #  1     ecut=    40.00 Ry     beta= 0.50
     Davidson diagonalization with overlap
     ethr =  1.00E-06,  avg # of iterations =  2.0

     Threshold (ethr) on eigenvalues was too large:
     Diagonalizing with lowered threshold

     Davidson diagonalization with overlap
     ethr =  2.96E-09,  avg # of iterations =  1.9

     total cpu time spent up to now is       43.2 secs

     total energy              =     -91.15902759 Ry
     Harris-Foulkes estimate   =     -91.16933571 Ry
     estimated scf accuracy    <       0.00000096 Ry

     iteration #  2     ecut=    40.00 Ry     beta= 0.50
     Davidson diagonalization with overlap
     ethr =  3.00E-09,  avg # of iterations =  3.0

     total cpu time spent up to now is       45.3 secs

     total energy              =     -91.15902975 Ry
     Harris-Foulkes estimate   =     -91.15902999 Ry
     estimated scf accuracy    <       0.00000072 Ry

     iteration #  3     ecut=    40.00 Ry     beta= 0.50
     Davidson diagonalization with overlap
     ethr =  2.25E-09,  avg # of iterations =  1.0

     total cpu time spent up to now is       46.5 secs

     total energy              =     -91.15902960 Ry
     Harris-Foulkes estimate   =     -91.15902978 Ry
     estimated scf accuracy    <       0.00000026 Ry

     iteration #  4     ecut=    40.00 Ry     beta= 0.50
     Davidson diagonalization with overlap
     ethr =  8.25E-10,  avg # of iterations =  2.0

     total cpu time spent up to now is       48.4 secs

     total energy              =     -91.15902966 Ry
     Harris-Foulkes estimate   =     -91.15902967 Ry
     estimated scf accuracy    <       0.00000002 Ry

     iteration #  5     ecut=    40.00 Ry     beta= 0.50
     Davidson diagonalization with overlap
     ethr =  4.94E-11,  avg # of iterations =  1.0

     total cpu time spent up to now is       49.7 secs

     total energy              =     -91.15902966 Ry
     Harris-Foulkes estimate   =     -91.15902966 Ry
     estimated scf accuracy    <          4.7E-09 Ry

     iteration #  6     ecut=    40.00 Ry     beta= 0.50
     Davidson diagonalization with overlap
     ethr =  1.47E-11,  avg # of iterations =  1.0

     total cpu time spent up to now is       51.0 secs

     total energy              =     -91.15902966 Ry
     Harris-Foulkes estimate   =     -91.15902966 Ry
     estimated scf accuracy    <          1.6E-09 Ry

     iteration #  7     ecut=    40.00 Ry     beta= 0.50
     Davidson diagonalization with overlap
     ethr =  5.06E-12,  avg # of iterations =  2.0

     total cpu time spent up to now is       53.1 secs

     End of self-consistent calculation

          k = 0.0000 0.0000 0.0000 (  2361 PWs)   bands (ev):

   -14.0289 -12.4904 -12.4902  -8.6986  -7.7245  -1.9103  -1.9102  -1.6145
    -0.9201  -0.6019  -0.6017   0.4741   0.4742   2.4583   2.5199   3.1547
     7.0907   8.9477  12.7318  12.8180

          k =-0.0000-0.0000 0.5441 (  2371 PWs)   bands (ev):

   -13.3237 -11.8028 -11.8025  -8.0935  -7.1802  -3.3401  -2.6580  -2.6577
    -1.0560  -1.0558  -0.7968   0.2032   0.2051   0.2513   1.0323   4.0113
     6.7898   9.8506  11.4659  11.4683

          k =-0.0001-0.0001 1.0882 (  2343 PWs)   bands (ev):

   -11.2498  -9.8037  -9.8033  -8.0795  -6.3608  -6.3603  -6.2922  -4.6502
    -3.3770  -1.9648  -0.9478  -0.9477   1.5288   2.2911   2.2946   4.7082
     6.5190   7.9173   7.9216  10.4007

          k = 0.0175 0.4557-0.0006 (  2365 PWs)   bands (ev):

   -13.8296 -13.2889 -11.4170 -10.0212  -6.1793  -4.0948  -1.7957  -1.6789
    -0.7513  -0.2666   0.1846   1.1643   1.3607   1.8159   2.1693   2.6205
     8.1116  10.3843  10.4441  12.7934

          k = 0.0174 0.4557 0.5435 (  2352 PWs)   bands (ev):

   -13.1275 -12.5934 -10.7425  -9.3756  -5.7526  -4.0284  -3.1145  -2.3847
    -1.5129  -0.9665  -0.8471  -0.4135   0.3533   1.0675   1.9198   3.3906
     7.7238   9.5723  11.3002  13.1335

          k = 0.0174 0.4556 1.0876 (  2346 PWs)   bands (ev):

   -11.0636 -10.5542  -8.8544  -8.1064  -7.0432  -7.0328  -5.3897  -4.2205
    -3.5996  -2.0903  -1.2604  -0.6552   1.3838   1.4735   3.4256   4.2759
     6.8316   7.1862   9.2201  10.1651

          k = 0.0175 0.4558-1.0888 (  2345 PWs)   bands (ev):

   -11.0632 -10.5544  -8.8547  -8.1069  -7.0431  -7.0330  -5.3894  -4.2204
    -3.5997  -2.0901  -1.2604  -0.6552   1.3789   1.4752   3.4272   4.2800
     6.8341   7.1855   9.2167  10.1631

          k = 0.0175 0.4558-0.5447 (  2351 PWs)   bands (ev):

   -13.1273 -12.5935 -10.7426  -9.3757  -5.7527  -4.0283  -3.1149  -2.3844
    -1.5126  -0.9694  -0.8460  -0.4135   0.3534   1.0675   1.9217   3.3917
     7.7256   9.5706  11.3114  13.1308

          k =-0.5015-0.0072 0.0005 (  2372 PWs)   bands (ev):

   -13.6338 -13.6337 -10.6900 -10.6899  -5.1893  -5.1892  -1.4559  -1.4548
    -0.5505  -0.5504   1.0908   1.0910   1.3185   1.3187   1.8033   1.8035
     9.4698   9.4698  10.3259  10.3281

          k =-0.5015-0.0072 0.5446 (  2350 PWs)   bands (ev):

   -12.9328 -12.9326 -10.0315 -10.0314  -4.8944  -4.8943  -2.8357  -2.8354
    -0.9305  -0.9303  -0.6387  -0.6359   0.8267   0.8268   2.0979   2.0981
     8.9059   8.9084  11.1914  11.2013

          k =-0.5015-0.0073 1.0887 (  2349 PWs)   bands (ev):

   -10.8740 -10.8736  -8.3470  -8.3468  -7.1993  -7.1990  -4.7820  -4.7819
    -2.8515  -2.8514  -0.8812  -0.8811   1.6414   1.6460   3.6515   3.6528
     7.0000   7.0034   9.4169   9.4170

          k =-0.4840 0.4485-0.0001 (  2354 PWs)   bands (ev):

   -13.9071 -13.0023 -11.9923  -9.2163  -7.1650  -2.9937  -2.3744  -0.8681
    -0.8129  -0.4379   0.0660   0.2464   0.9096   2.2868   2.4265   2.9028
     7.6348  10.3014  11.5206  12.5558

          k =-0.4840 0.4485 0.5440 (  2350 PWs)   bands (ev):

   -13.2064 -12.3063 -11.3101  -8.5949  -6.6504  -3.3027  -3.2640  -2.0744
    -1.7881  -1.5283  -0.2928   0.0453   0.3512   1.0306   1.0787   3.7091
     7.1917  10.6587  11.2024  12.2755

          k =-0.4841 0.4484 1.0881 (  2356 PWs)   bands (ev):

   -11.1451 -10.2718  -9.3517  -8.0295  -6.7896  -6.5699  -5.9064  -4.3181
    -3.6536  -1.7262  -1.4314  -0.6663   0.8936   2.4339   2.9624   4.1862
     6.6231   7.9051   8.6557  10.3207

          k =-0.4839 0.4486-1.0883 (  2354 PWs)   bands (ev):

   -11.1448 -10.2717  -9.3521  -8.0298  -6.7896  -6.5700  -5.9060  -4.3179
    -3.6533  -1.7264  -1.4313  -0.6663   0.8907   2.4324   2.9662   4.1894
     6.6243   7.9072   8.6504  10.3189

          k =-0.4840 0.4486-0.5442 (  2348 PWs)   bands (ev):

   -13.2062 -12.3063 -11.3103  -8.5951  -6.6504  -3.3027  -3.2642  -2.0741
    -1.7882  -1.5300  -0.2928   0.0455   0.3505   1.0331   1.0786   3.7105
     7.1923  10.6590  11.2045  12.2724

     the Fermi energy is     4.9351 ev

!    total energy              =     -91.15902966 Ry
     Harris-Foulkes estimate   =     -91.15902966 Ry
     estimated scf accuracy    <          1.0E-11 Ry

     The total energy is the sum of the following terms:

     one-electron contribution =     -46.45727996 Ry
     hartree contribution      =      37.19028940 Ry
     xc contribution           =     -27.96303362 Ry
     ewald contribution        =     -53.92940479 Ry
     smearing contrib. (-TS)   =       0.00039931 Ry

     convergence has been achieved in   7 iterations

     Forces acting on atoms (cartesian axes, Ry/au):

     atom    1 type  1   force =    -0.00004020   -0.00007193    0.00000148
     atom    2 type  1   force =     0.00000963   -0.00001251    0.00000958
     atom    3 type  1   force =    -0.00008795   -0.00002923   -0.00003278
     atom    4 type  1   force =    -0.00002313   -0.00000665    0.00002048
     atom    5 type  1   force =     0.00000146    0.00004027   -0.00000641
     atom    6 type  1   force =     0.00005751    0.00001644    0.00000583
     atom    7 type  1   force =    -0.00000869    0.00010023    0.00001211
     atom    8 type  1   force =     0.00009136   -0.00003662   -0.00001029

     Total force =     0.000208     Total SCF correction =     0.000003


     Computing stress (Cartesian axis) and pressure

          total   stress  (Ry/bohr**3)                   (kbar)     P=       -0.38
   0.00000095  -0.00000433  -0.00000001            0.14       -0.64       -0.00
  -0.00000433  -0.00000985   0.00000001           -0.64       -1.45        0.00
  -0.00000001   0.00000001   0.00000119           -0.00        0.00        0.17


     number of scf cycles    =   6
     number of bfgs steps    =   4

     enthalpy old            =     -91.1589902318 Ry
     enthalpy new            =     -91.1589922471 Ry

     CASE: enthalpy_new < enthalpy_old

     new trust radius        =       0.0019537117 bohr
     new conv_thr            =            1.0E-10 Ry

     new unit-cell volume =    550.11202 a.u.^3 (    81.51819 Ang^3 )
     density =      1.95554 g/cm^3

CELL_PARAMETERS (bohr)
  12.677013320  -0.487928955   0.000741373
  -0.134880018   9.295859815   0.000786878
   0.004476509   0.005832759   4.670757270

ATOMIC_POSITIONS (crystal)
C             0.2803200463        0.4263914186        0.3000816469
C             0.7801756620        0.9261249618        0.3000659903
C             0.3639683107        0.3426582464        0.8000876564
C             0.8638407372        0.8424311580       -0.1999376375
C             0.1139187752        0.5925763356        0.3000757414
C             0.0302215019        0.6762114617        0.8000728670
C             0.6138572944        1.0924514603        0.3000712842
C             0.5302386723        0.1762559575        0.8000784514



     Writing output data file ./pp.save/
     NEW-OLD atomic charge density approx. for the potential
     extrapolated charge   31.98684, renormalised to   32.00000

     total cpu time spent up to now is       53.2 secs

     Self-consistent Calculation

     iteration #  1     ecut=    40.00 Ry     beta= 0.50
     Davidson diagonalization with overlap
     ethr =  1.00E-06,  avg # of iterations =  2.0

     Threshold (ethr) on eigenvalues was too large:
     Diagonalizing with lowered threshold

     Davidson diagonalization with overlap
     ethr =  6.82E-09,  avg # of iterations =  1.6

     total cpu time spent up to now is       56.7 secs

     total energy              =     -91.15902767 Ry
     Harris-Foulkes estimate   =     -91.17461182 Ry
     estimated scf accuracy    <       0.00000221 Ry

     iteration #  2     ecut=    40.00 Ry     beta= 0.50
     Davidson diagonalization with overlap
     ethr =  6.90E-09,  avg # of iterations =  3.0

     total cpu time spent up to now is       60.3 secs

     total energy              =     -91.15903264 Ry
     Harris-Foulkes estimate   =     -91.15903317 Ry
     estimated scf accuracy    <       0.00000164 Ry

     iteration #  3     ecut=    40.00 Ry     beta= 0.50
     Davidson diagonalization with overlap
     ethr =  5.13E-09,  avg # of iterations =  1.0

     total cpu time spent up to now is       61.8 secs

     total energy              =     -91.15903228 Ry
     Harris-Foulkes estimate   =     -91.15903269 Ry
     estimated scf accuracy    <       0.00000060 Ry

     iteration #  4     ecut=    40.00 Ry     beta= 0.50
     Davidson diagonalization with overlap
     ethr =  1.88E-09,  avg # of iterations =  2.0

     total cpu time spent up to now is       63.9 secs

     total energy              =     -91.15903242 Ry
     Harris-Foulkes estimate   =     -91.15903244 Ry
     estimated scf accuracy    <       0.00000004 Ry

     iteration #  5     ecut=    40.00 Ry     beta= 0.50
     Davidson diagonalization with overlap
     ethr =  1.27E-10,  avg # of iterations =  1.1

     total cpu time spent up to now is       65.5 secs

     total energy              =     -91.15903242 Ry
     Harris-Foulkes estimate   =     -91.15903243 Ry
     estimated scf accuracy    <          9.7E-09 Ry

     iteration #  6     ecut=    40.00 Ry     beta= 0.50
     Davidson diagonalization with overlap
     ethr =  3.04E-11,  avg # of iterations =  1.0

     total cpu time spent up to now is       67.1 secs

     total energy              =     -91.15903242 Ry
     Harris-Foulkes estimate   =     -91.15903242 Ry
     estimated scf accuracy    <          3.7E-09 Ry

     iteration #  7     ecut=    40.00 Ry     beta= 0.50
     Davidson diagonalization with overlap
     ethr =  1.14E-11,  avg # of iterations =  2.0

     total cpu time spent up to now is       69.5 secs

     End of self-consistent calculation

          k = 0.0000 0.0000 0.0000 (  2361 PWs)   bands (ev):

   -14.0253 -12.4867 -12.4865  -8.6951  -7.7209  -1.9072  -1.9070  -1.6096
    -0.9152  -0.5984  -0.5983   0.4789   0.4792   2.4615   2.5248   3.1577
     7.0934   8.9532  12.7378  12.8226

          k =-0.0000-0.0000 0.5441 (  2371 PWs)   bands (ev):

   -13.3201 -11.7990 -11.7987  -8.0900  -7.1765  -3.3355  -2.6538  -2.6535
    -1.0523  -1.0521  -0.7919   0.2066   0.2086   0.2558   1.0358   4.0143
     6.7932   9.8561  11.4703  11.4727

          k =-0.0001-0.0001 1.0882 (  2343 PWs)   bands (ev):

   -11.2459  -9.7997  -9.7992  -8.0753  -6.3566  -6.3561  -6.2885  -4.6465
    -3.3729  -1.9611  -0.9445  -0.9443   1.5338   2.2948   2.2983   4.7128
     6.5223   7.9214   7.9258  10.4044

          k = 0.0175 0.4559-0.0006 (  2365 PWs)   bands (ev):

   -13.8258 -13.2850 -11.4135 -10.0177  -6.1758  -4.0915  -1.7919  -1.6761
    -0.7463  -0.2616   0.1878   1.1690   1.3656   1.8191   2.1742   2.6245
     8.1146  10.3883  10.4517  12.7980

          k = 0.0175 0.4559 0.5435 (  2352 PWs)   bands (ev):

   -13.1237 -12.5894 -10.7389  -9.3721  -5.7489  -4.0247  -3.1099  -2.3804
    -1.5086  -0.9626  -0.8442  -0.4091   0.3568   1.0710   1.9244   3.3948
     7.7273   9.5763  11.3077  13.1384

          k = 0.0175 0.4558 1.0876 (  2346 PWs)   bands (ev):

   -11.0596 -10.5501  -8.8505  -8.1022  -7.0390  -7.0289  -5.3857  -4.2165
    -3.5961  -2.0869  -1.2568  -0.6517   1.3879   1.4768   3.4299   4.2802
     6.8356   7.1903   9.2250  10.1695

          k = 0.0176 0.4560-1.0888 (  2345 PWs)   bands (ev):

   -11.0592 -10.5503  -8.8508  -8.1026  -7.0388  -7.0292  -5.3853  -4.2164
    -3.5961  -2.0867  -1.2567  -0.6518   1.3830   1.4784   3.4315   4.2843
     6.8381   7.1897   9.2215  10.1675

          k = 0.0176 0.4560-0.5447 (  2351 PWs)   bands (ev):

   -13.1235 -12.5896 -10.7391  -9.3722  -5.7490  -4.0245  -3.1103  -2.3801
    -1.5083  -0.9655  -0.8431  -0.4091   0.3570   1.0711   1.9264   3.3958
     7.7291   9.5746  11.3189  13.1357

          k =-0.5015-0.0073 0.0005 (  2372 PWs)   bands (ev):

   -13.6301 -13.6301 -10.6864 -10.6861  -5.1860  -5.1859  -1.4515  -1.4504
    -0.5457  -0.5453   1.0938   1.0943   1.3212   1.3215   1.8080   1.8086
     9.4735   9.4736  10.3318  10.3340

          k =-0.5015-0.0073 0.5446 (  2350 PWs)   bands (ev):

   -12.9291 -12.9288 -10.0279 -10.0276  -4.8909  -4.8907  -2.8313  -2.8309
    -0.9262  -0.9257  -0.6343  -0.6315   0.8300   0.8305   2.1007   2.1011
     8.9100   8.9126  11.1972  11.2072

          k =-0.5015-0.0074 1.0887 (  2349 PWs)   bands (ev):

   -10.8700 -10.8696  -8.3430  -8.3427  -7.1952  -7.1949  -4.7780  -4.7776
    -2.8480  -2.8479  -0.8777  -0.8775   1.6459   1.6505   3.6552   3.6565
     7.0042   7.0077   9.4206   9.4209

          k =-0.4839 0.4486-0.0001 (  2354 PWs)   bands (ev):

   -13.9033 -12.9987 -11.9886  -9.2128  -7.1616  -2.9904  -2.3713  -0.8631
    -0.8096  -0.4332   0.0709   0.2496   0.9145   2.2900   2.4314   2.9067
     7.6392  10.3070  11.5239  12.5650

          k =-0.4840 0.4486 0.5440 (  2350 PWs)   bands (ev):

   -13.2025 -12.3027 -11.3063  -8.5914  -6.6469  -3.2987  -3.2593  -2.0700
    -1.7842  -1.5252  -0.2892   0.0497   0.3560   1.0340   1.0823   3.7131
     7.1960  10.6627  11.2080  12.2796

          k =-0.4840 0.4485 1.0881 (  2356 PWs)   bands (ev):

   -11.1410 -10.2679  -9.3477  -8.0251  -6.7855  -6.5662  -5.9022  -4.3146
    -3.6495  -1.7226  -1.4280  -0.6628   0.8970   2.4386   2.9661   4.1900
     6.6274   7.9097   8.6597  10.3253

          k =-0.4839 0.4487-1.0883 (  2354 PWs)   bands (ev):

   -11.1407 -10.2678  -9.3481  -8.0254  -6.7855  -6.5663  -5.9018  -4.3144
    -3.6493  -1.7227  -1.4279  -0.6628   0.8941   2.4371   2.9700   4.1932
     6.6286   7.9118   8.6544  10.3234

          k =-0.4839 0.4487-0.5442 (  2348 PWs)   bands (ev):

   -13.2023 -12.3026 -11.3066  -8.5915  -6.6469  -3.2987  -3.2596  -2.0698
    -1.7842  -1.5268  -0.2892   0.0499   0.3552   1.0365   1.0822   3.7145
     7.1966  10.6629  11.2101  12.2765

     the Fermi energy is     4.9400 ev

!    total energy              =     -91.15903242 Ry
     Harris-Foulkes estimate   =     -91.15903242 Ry
     estimated scf accuracy    <          1.9E-11 Ry

     The total energy is the sum of the following terms:

     one-electron contribution =     -46.38677985 Ry
     hartree contribution      =      37.15977554 Ry
     xc contribution           =     -27.96326748 Ry
     ewald contribution        =     -53.96915853 Ry
     smearing contrib. (-TS)   =       0.00039791 Ry

     convergence has been achieved in   7 iterations

     Forces acting on atoms (cartesian axes, Ry/au):

     atom    1 type  1   force =     0.00000514   -0.00011061    0.00002637
     atom    2 type  1   force =     0.00005333   -0.00002826   -0.00000024
     atom    3 type  1   force =    -0.00012396    0.00007439   -0.00004273
     atom    4 type  1   force =    -0.00005193    0.00001580    0.00001685
     atom    5 type  1   force =    -0.00004428    0.00001770   -0.00001532
     atom    6 type  1   force =     0.00009204    0.00001635    0.00001106
     atom    7 type  1   force =    -0.00009745    0.00018247    0.00001710
     atom    8 type  1   force =     0.00016711   -0.00016784   -0.00001308

     Total force =     0.000392     Total SCF correction =     0.000004


     Computing stress (Cartesian axis) and pressure

          total   stress  (Ry/bohr**3)                   (kbar)     P=       -0.30
   0.00000051  -0.00000389  -0.00000004            0.08       -0.57       -0.01
  -0.00000389  -0.00001011   0.00000003           -0.57       -1.49        0.00
  -0.00000004   0.00000003   0.00000351           -0.01        0.00        0.52


     number of scf cycles    =   7
     number of bfgs steps    =   5

     enthalpy old            =     -91.1589922471 Ry
     enthalpy new            =     -91.1589950253 Ry

     CASE: enthalpy_new < enthalpy_old

     new trust radius        =       0.0029312485 bohr
     new conv_thr            =            1.0E-10 Ry

     new unit-cell volume =    549.78353 a.u.^3 (    81.46951 Ang^3 )
     density =      1.95670 g/cm^3

CELL_PARAMETERS (bohr)
  12.677490459  -0.490575576   0.000734892
  -0.137043366   9.290494105   0.000789456
   0.004472999   0.005829637   4.670546074

ATOMIC_POSITIONS (crystal)
C             0.2803086239        0.4263815477        0.3000722747
C             0.7801736581        0.9261240488        0.3000751226
C             0.3639557970        0.3426325883        0.8000782322
C             0.8638441603        0.8424248477       -0.1999289885
C             0.1139287986        0.5925860489        0.3000748313
C             0.0302195302        0.6762200565        0.8000751096
C             0.6138660882        1.0924579503        0.3000715373
C             0.5302443437        0.1762739118        0.8000778808



     Writing output data file ./pp.save/
     NEW-OLD atomic charge density approx. for the potential
     extrapolated charge   31.98088, renormalised to   32.00000

     total cpu time spent up to now is       69.6 secs

     Self-consistent Calculation

     iteration #  1     ecut=    40.00 Ry     beta= 0.50
     Davidson diagonalization with overlap
     ethr =  1.00E-06,  avg # of iterations =  2.0

     Threshold (ethr) on eigenvalues was too large:
     Diagonalizing with lowered threshold

     Davidson diagonalization with overlap
     ethr =  1.43E-08,  avg # of iterations =  1.6

     total cpu time spent up to now is       73.8 secs

     total energy              =     -91.15902647 Ry
     Harris-Foulkes estimate   =     -91.18162131 Ry
     estimated scf accuracy    <       0.00000458 Ry

     iteration #  2     ecut=    40.00 Ry     beta= 0.50
     Davidson diagonalization with overlap
     ethr =  1.43E-08,  avg # of iterations =  3.0

     total cpu time spent up to now is       76.8 secs

     total energy              =     -91.15903690 Ry
     Harris-Foulkes estimate   =     -91.15903802 Ry
     estimated scf accuracy    <       0.00000348 Ry

     iteration #  3     ecut=    40.00 Ry     beta= 0.50
     Davidson diagonalization with overlap
     ethr =  1.09E-08,  avg # of iterations =  1.0

     total cpu time spent up to now is       78.6 secs

     total energy              =     -91.15903614 Ry
     Harris-Foulkes estimate   =     -91.15903700 Ry
     estimated scf accuracy    <       0.00000128 Ry

     iteration #  4     ecut=    40.00 Ry     beta= 0.50
     Davidson diagonalization with overlap
     ethr =  4.01E-09,  avg # of iterations =  2.0

     total cpu time spent up to now is       81.1 secs

     total energy              =     -91.15903644 Ry
     Harris-Foulkes estimate   =     -91.15903648 Ry
     estimated scf accuracy    <       0.00000009 Ry

     iteration #  5     ecut=    40.00 Ry     beta= 0.50
     Davidson diagonalization with overlap
     ethr =  2.86E-10,  avg # of iterations =  1.9

     total cpu time spent up to now is       83.4 secs

     total energy              =     -91.15903644 Ry
     Harris-Foulkes estimate   =     -91.15903644 Ry
     estimated scf accuracy    <       0.00000002 Ry

     iteration #  6     ecut=    40.00 Ry     beta= 0.50
     Davidson diagonalization with overlap
     ethr =  6.24E-11,  avg # of iterations =  1.0

     total cpu time spent up to now is       85.3 secs

     total energy              =     -91.15903643 Ry
     Harris-Foulkes estimate   =     -91.15903644 Ry
     estimated scf accuracy    <          7.5E-09 Ry

     iteration #  7     ecut=    40.00 Ry     beta= 0.50
     Davidson diagonalization with overlap
     ethr =  2.33E-11,  avg # of iterations =  2.0

     total cpu time spent up to now is       88.1 secs

     total energy              =     -91.15903644 Ry
     Harris-Foulkes estimate   =     -91.15903644 Ry
     estimated scf accuracy    <          1.0E-10 Ry

     iteration #  8     ecut=    40.00 Ry     beta= 0.50
     Davidson diagonalization with overlap
     ethr =  3.13E-13,  avg # of iterations =  2.6

     total cpu time spent up to now is       91.2 secs

     End of self-consistent calculation

          k = 0.0000 0.0000 0.0000 (  2361 PWs)   bands (ev):

   -14.0199 -12.4811 -12.4808  -8.6898  -7.7154  -1.9023  -1.9021  -1.6023
    -0.9083  -0.5934  -0.5932   0.4857   0.4862   2.4664   2.5316   3.1621
     7.0975   8.9614  12.7455  12.8292

          k =-0.0000-0.0000 0.5441 (  2371 PWs)   bands (ev):

   -13.3146 -11.7933 -11.7930  -8.0846  -7.1709  -3.3291  -2.6478  -2.6474
    -1.0469  -1.0466  -0.7846   0.2118   0.2138   0.2622   1.0411   4.0188
     6.7981   9.8643  11.4765  11.4789

          k =-0.0001-0.0001 1.0883 (  2343 PWs)   bands (ev):

   -11.2401  -9.7938  -9.7933  -8.0692  -6.3505  -6.3500  -6.2829  -4.6410
    -3.3670  -1.9555  -0.9394  -0.9392   1.5410   2.3002   2.3037   4.7196
     6.5271   7.9273   7.9317  10.4097

          k = 0.0177 0.4562-0.0006 (  2365 PWs)   bands (ev):

   -13.8203 -13.2792 -11.4082 -10.0125  -6.1705  -4.0865  -1.7862  -1.6719
    -0.7394  -0.2547   0.1927   1.1759   1.3723   1.8241   2.1809   2.6306
     8.1192  10.3942  10.4630  12.8046

          k = 0.0176 0.4561 0.5436 (  2352 PWs)   bands (ev):

   -13.1181 -12.5836 -10.7335  -9.3668  -5.7434  -4.0191  -3.1035  -2.3742
    -1.5025  -0.9568  -0.8399  -0.4029   0.3621   1.0764   1.9314   3.4010
     7.7323   9.5820  11.3187  13.1453

          k = 0.0176 0.4561 1.0877 (  2346 PWs)   bands (ev):

   -11.0538 -10.5440  -8.8448  -8.0962  -7.0328  -7.0233  -5.3798  -4.2107
    -3.5906  -2.0816  -1.2513  -0.6464   1.3939   1.4815   3.4362   4.2865
     6.8414   7.1962   9.2320  10.1758

          k = 0.0177 0.4563-1.0889 (  2345 PWs)   bands (ev):

   -11.0533 -10.5442  -8.8451  -8.0966  -7.0327  -7.0235  -5.3794  -4.2106
    -3.5907  -2.0815  -1.2512  -0.6465   1.3889   1.4831   3.4378   4.2906
     6.8439   7.1955   9.2285  10.1738

          k = 0.0177 0.4562-0.5447 (  2351 PWs)   bands (ev):

   -13.1178 -12.5837 -10.7337  -9.3669  -5.7435  -4.0190  -3.1039  -2.3740
    -1.5021  -0.9597  -0.8388  -0.4029   0.3622   1.0765   1.9333   3.4020
     7.7341   9.5803  11.3299  13.1426

          k =-0.5015-0.0074 0.0005 (  2372 PWs)   bands (ev):

   -13.6246 -13.6246 -10.6807 -10.6806  -5.1809  -5.1808  -1.4450  -1.4439
    -0.5388  -0.5384   1.0988   1.0991   1.3254   1.3256   1.8149   1.8154
     9.4791   9.4791  10.3406  10.3427

          k =-0.5015-0.0074 0.5446 (  2350 PWs)   bands (ev):

   -12.9236 -12.9233 -10.0221 -10.0220  -4.8855  -4.8853  -2.8250  -2.8246
    -0.9198  -0.9195  -0.6277  -0.6249   0.8354   0.8357   2.1051   2.1053
     8.9161   8.9187  11.2059  11.2159

          k =-0.5015-0.0075 1.0888 (  2349 PWs)   bands (ev):

   -10.8643 -10.8638  -8.3369  -8.3367  -7.1893  -7.1890  -4.7718  -4.7716
    -2.8427  -2.8427  -0.8723  -0.8722   1.6525   1.6571   3.6604   3.6618
     7.0103   7.0137   9.4260   9.4262

          k =-0.4838 0.4488-0.0001 (  2354 PWs)   bands (ev):

   -13.8974 -12.9933 -11.9830  -9.2075  -7.1565  -2.9853  -2.3668  -0.8561
    -0.8046  -0.4262   0.0777   0.2545   0.9213   2.2949   2.4381   2.9126
     7.6457  10.3154  11.5286  12.5786

          k =-0.4838 0.4487 0.5440 (  2350 PWs)   bands (ev):

   -13.1966 -12.2972 -11.3007  -8.5860  -6.6416  -3.2929  -3.2528  -2.0638
    -1.7784  -1.5206  -0.2838   0.0560   0.3630   1.0389   1.0876   3.7190
     7.2024  10.6684  11.2163  12.2852

[...]

     Davidson diagonalization with overlap
     ethr =  3.90E-08,  avg # of iterations =  3.0

     total cpu time spent up to now is     2067.0 secs

     total energy              =     -91.15950047 Ry
     Harris-Foulkes estimate   =     -91.12793995 Ry
     estimated scf accuracy    <       0.00001286 Ry

     iteration #  2     ecut=    40.00 Ry     beta= 0.50
     Davidson diagonalization with overlap
     ethr =  4.02E-08,  avg # of iterations =  3.0

     total cpu time spent up to now is     2085.2 secs

     total energy              =     -91.15952157 Ry
     Harris-Foulkes estimate   =     -91.15952390 Ry
     estimated scf accuracy    <       0.00000746 Ry

     iteration #  3     ecut=    40.00 Ry     beta= 0.50
     Davidson diagonalization with overlap
     ethr =  2.33E-08,  avg # of iterations =  1.0

     total cpu time spent up to now is     2095.8 secs

     total energy              =     -91.15952050 Ry
     Harris-Foulkes estimate   =     -91.15952183 Ry
     estimated scf accuracy    <       0.00000250 Ry

     iteration #  4     ecut=    40.00 Ry     beta= 0.50
     Davidson diagonalization with overlap
     ethr =  7.81E-09,  avg # of iterations =  2.0

     total cpu time spent up to now is     2111.0 secs

     total energy              =     -91.15952095 Ry
     Harris-Foulkes estimate   =     -91.15952097 Ry
     estimated scf accuracy    <       0.00000011 Ry

     iteration #  5     ecut=    40.00 Ry     beta= 0.50
     Davidson diagonalization with overlap
     ethr =  3.53E-10,  avg # of iterations =  2.0

     total cpu time spent up to now is     2125.0 secs

     total energy              =     -91.15952095 Ry
     Harris-Foulkes estimate   =     -91.15952097 Ry
     estimated scf accuracy    <       0.00000004 Ry

     iteration #  6     ecut=    40.00 Ry     beta= 0.50
     Davidson diagonalization with overlap
     ethr =  1.09E-10,  avg # of iterations =  2.0

     total cpu time spent up to now is     2139.7 secs

     total energy              =     -91.15952096 Ry
     Harris-Foulkes estimate   =     -91.15952096 Ry
     estimated scf accuracy    <          1.0E-09 Ry

     iteration #  7     ecut=    40.00 Ry     beta= 0.50
     Davidson diagonalization with overlap
     ethr =  3.28E-12,  avg # of iterations =  2.3

     total cpu time spent up to now is     2155.8 secs

     End of self-consistent calculation

          k = 0.0000 0.0000 0.0000 (  2361 PWs)   bands (ev):

   -14.0127 -12.5108 -12.5076  -8.7074  -7.6930  -1.9323  -1.9289  -1.5976
    -0.8688  -0.3419  -0.3344   0.5071   0.5122   2.4230   2.5386   2.9048
     6.7917   8.9568  12.2556  12.2935

          k = 0.0005 0.0007 0.5447 (  2371 PWs)   bands (ev):

   -13.3057 -11.8200 -11.8168  -8.1017  -7.1473  -3.3001  -2.6486  -2.6440
    -1.0669  -1.0627  -0.7794   0.2616   0.4555   0.4635   1.0226   3.7679
     6.5960   9.8621  11.4498  11.4576

          k = 0.0010 0.0015 1.0893 (  2343 PWs)   bands (ev):

   -11.2259  -9.8114  -9.8078  -8.0448  -6.3574  -6.3536  -6.2977  -4.6273
    -3.3766  -1.9495  -0.9672  -0.9636   1.5440   2.5109   2.5192   4.6858
     6.2992   8.1055   8.1173  10.2271

          k =-0.0041 0.5112 0.0001 (  2365 PWs)   bands (ev):

   -13.8032 -13.2708 -11.4304  -9.9993  -6.2180  -4.1421  -1.8912  -1.7140
    -0.6999  -0.2198   0.1614   1.3234   1.3883   1.7795   2.1921   2.3194
     8.2727  10.6418  10.8994  12.2738

          k =-0.0036 0.5119 0.5447 (  2352 PWs)   bands (ev):

   -13.0996 -12.5737 -10.7534  -9.3537  -5.7810  -4.0470  -3.0778  -2.3704
    -1.4968  -1.0598  -0.8781  -0.3953   0.3328   1.0450   2.0718   3.0971
     7.8660   9.6927  11.7497  13.1193

          k =-0.0031 0.5126 1.0894 (  2346 PWs)   bands (ev):

   -11.0313 -10.5299  -8.8531  -8.0675  -7.0222  -7.0171  -5.3842  -4.2035
    -3.6234  -2.1211  -1.2770  -0.6790   1.3019   1.4580   3.5097   4.1373
     6.7478   7.2490   9.3130   9.9956

          k =-0.0051 0.5097-1.0893 (  2345 PWs)   bands (ev):

   -11.0317 -10.5301  -8.8531  -8.0665  -7.0237  -7.0156  -5.3855  -4.2025
    -3.6217  -2.1228  -1.2789  -0.6769   1.3069   1.4584   3.5087   4.1335
     6.7413   7.2512   9.3114  10.0013

          k =-0.0046 0.5104-0.5446 (  2351 PWs)   bands (ev):

   -13.0998 -12.5739 -10.7532  -9.3537  -5.7809  -4.0460  -3.0771  -2.3716
    -1.4989  -1.0569  -0.8780  -0.3934   0.3355   1.0424   2.0717   3.0951
     7.8622   9.6935  11.7372  13.1183

          k =-0.4462 0.0158 0.0000 (  2372 PWs)   bands (ev):

   -13.6390 -13.6250 -10.7071 -10.6999  -5.1832  -5.1721  -1.3091  -1.3051
    -0.5121  -0.4957   1.0502   1.0514   1.3886   1.3911   1.8257   1.8301
     9.0625   9.0744   9.8533   9.8771

          k =-0.4458 0.0165 0.5447 (  2350 PWs)   bands (ev):

   -12.9356 -12.9215 -10.0462 -10.0391  -4.8845  -4.8729  -2.8134  -2.7991
    -0.9212  -0.9168  -0.4954  -0.4911   0.8017   0.8056   2.1687   2.1718
     8.6631   8.6684  10.7410  10.7657

          k =-0.4453 0.0172 1.0893 (  2349 PWs)   bands (ev):

   -10.8694 -10.8550  -8.3453  -8.3357  -7.1948  -7.1838  -4.7818  -4.7768
    -2.8516  -2.8420  -0.8902  -0.8833   1.7690   1.7736   3.7401   3.7451
     6.9961   7.0021   9.4489   9.4526

          k =-0.4503 0.5269 0.0001 (  2354 PWs)   bands (ev):

   -13.8937 -12.9798 -11.9577  -9.2700  -7.1678  -3.0202  -2.3332  -0.8662
    -0.8174  -0.5670  -0.0422   0.1102   0.9480   2.2586   2.4408   3.1726
     7.7216  10.7478  11.4401  12.3437

          k =-0.4499 0.5277 0.5447 (  2350 PWs)   bands (ev):

   -13.1908 -12.2825 -11.2754  -8.6442  -6.6494  -3.2916  -3.2262  -2.0521
    -1.7871  -1.4879  -0.3243   0.0434   0.2273   0.7584   1.0662   3.9815
     7.2197  10.5907  11.6257  12.2618

          k =-0.4494 0.5284 1.0894 (  2356 PWs)   bands (ev):

   -11.1236 -10.2436  -9.3151  -8.0036  -6.7602  -6.6072  -5.8733  -4.3163
    -3.6759  -1.7267  -1.4556  -0.6945   0.9367   2.3259   2.7611   4.2878
     6.7665   7.7734   8.4477  10.4638

          k =-0.4513 0.5255-1.0892 (  2354 PWs)   bands (ev):

   -11.1240 -10.2437  -9.3150  -8.0034  -6.7610  -6.6057  -5.8724  -4.3171
    -3.6772  -1.7256  -1.4536  -0.6966   0.9402   2.3290   2.7588   4.2834
     6.7647   7.7665   8.4539  10.4664

          k =-0.4508 0.5262-0.5446 (  2348 PWs)   bands (ev):

   -13.1910 -12.2826 -11.2754  -8.6439  -6.6493  -3.2931  -3.2260  -2.0502
    -1.7850  -1.4860  -0.3268   0.0415   0.2294   0.7569   1.0680   3.9798
     7.2178  10.5872  11.6188  12.2649

     the Fermi energy is     4.9061 ev

!    total energy              =     -91.15952096 Ry
     Harris-Foulkes estimate   =     -91.15952096 Ry
     estimated scf accuracy    <          7.4E-11 Ry

     The total energy is the sum of the following terms:

     one-electron contribution =     -46.11066707 Ry
     hartree contribution      =      37.01184062 Ry
     xc contribution           =     -27.94701671 Ry
     ewald contribution        =     -54.11412112 Ry
     smearing contrib. (-TS)   =       0.00044332 Ry

     convergence has been achieved in   7 iterations

     Forces acting on atoms (cartesian axes, Ry/au):

     atom    1 type  1   force =    -0.00149218   -0.00019675    0.00114594
     atom    2 type  1   force =     0.00150677    0.00067889   -0.00052508
     atom    3 type  1   force =    -0.00143307    0.00317294   -0.00020211
     atom    4 type  1   force =     0.00175062    0.00029057   -0.00034888
     atom    5 type  1   force =    -0.00168814   -0.00108045   -0.00045402
     atom    6 type  1   force =     0.00090136   -0.00026889    0.00030011
     atom    7 type  1   force =     0.00011941    0.00021693   -0.00001319
     atom    8 type  1   force =     0.00033523   -0.00281325    0.00009723

     Total force =     0.005943     Total SCF correction =     0.000011


     Computing stress (Cartesian axis) and pressure

          total   stress  (Ry/bohr**3)                   (kbar)     P=       -4.96
  -0.00010450   0.00007095  -0.00000006          -15.37       10.44       -0.01
   0.00007095  -0.00003757   0.00000025           10.44       -5.53        0.04
  -0.00000006   0.00000025   0.00004085           -0.01        0.04        6.01


     number of scf cycles    =  36
     number of bfgs steps    =  34

     enthalpy old            =     -91.1594656818 Ry
     enthalpy new            =     -91.1594835230 Ry

     CASE: enthalpy_new < enthalpy_old

     new trust radius        =       0.0162303318 bohr
     new conv_thr            =            1.0E-10 Ry

     new unit-cell volume =    551.54119 a.u.^3 (    81.72997 Ang^3 )
     density =      1.95047 g/cm^3

CELL_PARAMETERS (bohr)
  14.276813833   0.138312178  -0.013495809
   0.314251249   8.279469071  -0.011945350
   0.000002395  -0.000666800   4.667711170

ATOMIC_POSITIONS (crystal)
C             0.2810631527        0.4282464724        0.2994175422
C             0.7790220019        0.9230560719        0.3006478437
C             0.3646551365        0.3439710058        0.7995569970
C             0.8627888146        0.8395658637       -0.1993753093
C             0.1145907032        0.5942944709        0.3000990623
C             0.0301957455        0.6765055278        0.8001300136
C             0.6136891992        1.0921408061        0.3001237523
C             0.5305362465        0.1773207814        0.7999960981



     Writing output data file ./pp.save/
     NEW-OLD atomic charge density approx. for the potential
     extrapolated charge   32.05090, renormalised to   32.00000

     total cpu time spent up to now is     2156.3 secs

     Self-consistent Calculation

     iteration #  1     ecut=    40.00 Ry     beta= 0.50
     Davidson diagonalization with overlap
     ethr =  1.00E-06,  avg # of iterations =  4.7

     total cpu time spent up to now is     2181.7 secs

     total energy              =     -91.15948477 Ry
     Harris-Foulkes estimate   =     -91.09929478 Ry
     estimated scf accuracy    <       0.00003791 Ry

     iteration #  2     ecut=    40.00 Ry     beta= 0.50
     Davidson diagonalization with overlap
     ethr =  1.18E-07,  avg # of iterations =  3.9

     total cpu time spent up to now is     2203.9 secs

     total energy              =     -91.15956167 Ry
     Harris-Foulkes estimate   =     -91.15956998 Ry
     estimated scf accuracy    <       0.00002632 Ry

     iteration #  3     ecut=    40.00 Ry     beta= 0.50
     Davidson diagonalization with overlap
     ethr =  8.22E-08,  avg # of iterations =  1.0

     total cpu time spent up to now is     2214.9 secs

     total energy              =     -91.15955736 Ry
     Harris-Foulkes estimate   =     -91.15956256 Ry
     estimated scf accuracy    <       0.00000931 Ry

     iteration #  4     ecut=    40.00 Ry     beta= 0.50
     Davidson diagonalization with overlap
     ethr =  2.91E-08,  avg # of iterations =  2.0

     total cpu time spent up to now is     2230.5 secs

     total energy              =     -91.15955879 Ry
     Harris-Foulkes estimate   =     -91.15955890 Ry
     estimated scf accuracy    <       0.00000047 Ry

     iteration #  5     ecut=    40.00 Ry     beta= 0.50
     Davidson diagonalization with overlap
     ethr =  1.47E-09,  avg # of iterations =  2.0

     total cpu time spent up to now is     2246.4 secs

     total energy              =     -91.15955882 Ry
     Harris-Foulkes estimate   =     -91.15955892 Ry
     estimated scf accuracy    <       0.00000019 Ry

     iteration #  6     ecut=    40.00 Ry     beta= 0.50
     Davidson diagonalization with overlap
     ethr =  5.84E-10,  avg # of iterations =  2.0

     total cpu time spent up to now is     2261.7 secs

     total energy              =     -91.15955884 Ry
     Harris-Foulkes estimate   =     -91.15955884 Ry
     estimated scf accuracy    <          6.6E-09 Ry

     iteration #  7     ecut=    40.00 Ry     beta= 0.50
     Davidson diagonalization with overlap
     ethr =  2.07E-11,  avg # of iterations =  2.0

     total cpu time spent up to now is     2277.6 secs

     total energy              =     -91.15955884 Ry
     Harris-Foulkes estimate   =     -91.15955884 Ry
     estimated scf accuracy    <          2.5E-10 Ry

     iteration #  8     ecut=    40.00 Ry     beta= 0.50
     Davidson diagonalization with overlap
     ethr =  7.92E-13,  avg # of iterations =  2.4

     total cpu time spent up to now is     2294.8 secs

     total energy              =     -91.15955884 Ry
     Harris-Foulkes estimate   =     -91.15955884 Ry
     estimated scf accuracy    <          1.0E-10 Ry

     iteration #  9     ecut=    40.00 Ry     beta= 0.50
     Davidson diagonalization with overlap
     ethr =  3.13E-13,  avg # of iterations =  2.0

     total cpu time spent up to now is     2309.7 secs

     End of self-consistent calculation

          k = 0.0000 0.0000 0.0000 (  2361 PWs)   bands (ev):

   -14.0271 -12.5258 -12.5218  -8.7181  -7.7066  -1.9413  -1.9369  -1.6171
    -0.8935  -0.3516  -0.3407   0.4832   0.4881   2.4133   2.5159   2.8974
     6.7841   8.9351  12.2038  12.2571

          k = 0.0005 0.0008 0.5445 (  2371 PWs)   bands (ev):

   -13.3206 -11.8355 -11.8314  -8.1129  -7.1618  -3.3217  -2.6666  -2.6611
    -1.0801  -1.0757  -0.7992   0.2419   0.4451   0.4562   1.0110   3.7588
     6.5846   9.8400  11.4303  11.4410

          k = 0.0010 0.0015 1.0889 (  2343 PWs)   bands (ev):

   -11.2424  -9.8285  -9.8240  -8.0640  -6.3759  -6.3715  -6.3106  -4.6412
    -3.3924  -1.9633  -0.9780  -0.9733   1.5235   2.4983   2.5091   4.6667
     6.2880   8.0892   8.1057  10.2131

          k =-0.0050 0.5118 0.0001 (  2365 PWs)   bands (ev):

   -13.8178 -13.2859 -11.4430 -10.0107  -6.2298  -4.1516  -1.9080  -1.7246
    -0.7246  -0.2442   0.1525   1.3056   1.3650   1.7700   2.1693   2.3011
     8.2680  10.6262  10.8789  12.2567

          k =-0.0045 0.5125 0.5445 (  2352 PWs)   bands (ev):

   -13.1148 -12.5894 -10.7666  -9.3658  -5.7940  -4.0606  -3.0990  -2.3889
    -1.5155  -1.0772  -0.8895  -0.4140   0.3212   1.0330   2.0536   3.0774
     7.8572   9.6762  11.7299  13.0974

          k =-0.0039 0.5133 1.0890 (  2346 PWs)   bands (ev):

   -11.0481 -10.5471  -8.8686  -8.0856  -7.0398  -7.0322  -5.4011  -4.2193
    -3.6362  -2.1319  -1.2899  -0.6902   1.2832   1.4445   3.4919   4.1169
     6.7315   7.2316   9.2929   9.9757

          k =-0.0060 0.5102-1.0889 (  2345 PWs)   bands (ev):

   -11.0486 -10.5473  -8.8687  -8.0844  -7.0408  -7.0314  -5.4023  -4.2183
    -3.6344  -2.1337  -1.2919  -0.6881   1.2885   1.4450   3.4908   4.1129
     6.7246   7.2340   9.2911   9.9817

          k =-0.0055 0.5110-0.5444 (  2351 PWs)   bands (ev):

   -13.1150 -12.5895 -10.7665  -9.3657  -5.7940  -4.0594  -3.0983  -2.3902
    -1.5177  -1.0742  -0.8893  -0.4121   0.3241   1.0303   2.0535   3.0753
     7.8531   9.6771  11.7166  13.0962

          k =-0.4452 0.0169 0.0000 (  2372 PWs)   bands (ev):

   -13.6538 -13.6392 -10.7207 -10.7137  -5.1934  -5.1822  -1.3241  -1.3209
    -0.5373  -0.5194   1.0404   1.0424   1.3838   1.3877   1.8011   1.8083
     9.0486   9.0598   9.8222   9.8454

          k =-0.4447 0.0177 0.5445 (  2350 PWs)   bands (ev):

   -12.9509 -12.9363 -10.0603 -10.0534  -4.8969  -4.8853  -2.8342  -2.8186
    -0.9409  -0.9355  -0.5110  -0.5072   0.7898   0.7947   2.1620   2.1662
     8.6466   8.6518  10.7099  10.7338

          k =-0.4442 0.0184 1.0889 (  2349 PWs)   bands (ev):

   -10.8863 -10.8715  -8.3624  -8.3530  -7.2120  -7.2006  -4.7991  -4.7939
    -2.8630  -2.8534  -0.9019  -0.8951   1.7521   1.7567   3.7280   3.7334
     6.9801   6.9865   9.4356   9.4400

          k =-0.4501 0.5287 0.0001 (  2354 PWs)   bands (ev):

   -13.9092 -12.9933 -11.9713  -9.2814  -7.1789  -3.0302  -2.3447  -0.8753
    -0.8422  -0.5882  -0.0570   0.0862   0.9243   2.2495   2.4181   3.1611
     7.7032  10.7383  11.4351  12.3024

          k =-0.4496 0.5294 0.5445 (  2350 PWs)   bands (ev):

   -13.2068 -12.2966 -11.2896  -8.6563  -6.6616  -3.3076  -3.2479  -2.0707
    -1.8030  -1.5000  -0.3365   0.0245   0.2058   0.7428   1.0544   3.9692
     7.2008  10.5777  11.6169  12.2450

          k =-0.4491 0.5302 1.0890 (  2356 PWs)   bands (ev):

   -11.1411 -10.2594  -9.3311  -8.0231  -6.7778  -6.6204  -5.8909  -4.3289
    -3.6916  -1.7398  -1.4666  -0.7053   0.9227   2.3041   2.7433   4.2726
     6.7499   7.7529   8.4286  10.4463

          k =-0.4512 0.5271-1.0889 (  2354 PWs)   bands (ev):

   -11.1415 -10.2595  -9.3309  -8.0230  -6.7787  -6.6188  -5.8900  -4.3298
    -3.6929  -1.7387  -1.4646  -0.7075   0.9264   2.3074   2.7410   4.2680
     6.7481   7.7456   8.4351  10.4491

          k =-0.4507 0.5279-0.5444 (  2348 PWs)   bands (ev):

   -13.2070 -12.2967 -11.2896  -8.6560  -6.6614  -3.3093  -3.2477  -2.0687
    -1.8008  -1.4980  -0.3391   0.0224   0.2080   0.7413   1.0563   3.9674
     7.1987  10.5740  11.6094  12.2482

     the Fermi energy is     4.8857 ev

!    total energy              =     -91.15955884 Ry
     Harris-Foulkes estimate   =     -91.15955884 Ry
     estimated scf accuracy    <          1.7E-11 Ry

     The total energy is the sum of the following terms:

     one-electron contribution =     -46.39338631 Ry
     hartree contribution      =      37.13480105 Ry
     xc contribution           =     -27.94647457 Ry
     ewald contribution        =     -53.95495156 Ry
     smearing contrib. (-TS)   =       0.00045255 Ry

     convergence has been achieved in   9 iterations

     Forces acting on atoms (cartesian axes, Ry/au):

     atom    1 type  1   force =    -0.00129153    0.00072191    0.00127056
     atom    2 type  1   force =     0.00100609    0.00155569   -0.00064847
     atom    3 type  1   force =    -0.00159144    0.00291327   -0.00012020
     atom    4 type  1   force =     0.00238478    0.00054689   -0.00043501
     atom    5 type  1   force =    -0.00146766   -0.00143463   -0.00050243
     atom    6 type  1   force =     0.00033750   -0.00084529    0.00033701
     atom    7 type  1   force =     0.00061000   -0.00109774   -0.00003572
     atom    8 type  1   force =     0.00001227   -0.00236011    0.00013426

     Total force =     0.006119     Total SCF correction =     0.000004


     Computing stress (Cartesian axis) and pressure

          total   stress  (Ry/bohr**3)                   (kbar)     P=       -5.11
  -0.00009449   0.00006429  -0.00000017          -13.90        9.46       -0.03
   0.00006429  -0.00003424   0.00000035            9.46       -5.04        0.05
  -0.00000017   0.00000035   0.00002461           -0.03        0.05        3.62


     number of scf cycles    =  37
     number of bfgs steps    =  35

     enthalpy old            =     -91.1594835230 Ry
     enthalpy new            =     -91.1595213509 Ry

     CASE: enthalpy_new < enthalpy_old

     new trust radius        =       0.0242997296 bohr
     new conv_thr            =            1.0E-10 Ry

     new unit-cell volume =    552.18353 a.u.^3 (    81.82516 Ang^3 )
     density =      1.94820 g/cm^3

CELL_PARAMETERS (bohr)
  14.333769848   0.171991659  -0.014210697
   0.343085789   8.254613759  -0.012690322
  -0.000172255  -0.000956987   4.669206224

ATOMIC_POSITIONS (crystal)
C             0.2809935713        0.4280224475        0.2993980100
C             0.7790013170        0.9228923422        0.3006735575
C             0.3646147062        0.3440248366        0.7995025691
C             0.8627324793        0.8394621384       -0.1993273134
C             0.1145897734        0.5943615709        0.3000860364
C             0.0302777713        0.6766435061        0.8001429212
C             0.6137411933        1.0923679110        0.3001394104
C             0.5305901883        0.1773262474        0.7999808088



     Writing output data file ./pp.save/
     NEW-OLD atomic charge density approx. for the potential
     extrapolated charge   32.03722, renormalised to   32.00000

     total cpu time spent up to now is     2310.2 secs

     Self-consistent Calculation

     iteration #  1     ecut=    40.00 Ry     beta= 0.50
     Davidson diagonalization with overlap
