
     Program PWSCF v.6.5 starts on 10Jul2022 at  6:14: 3 

     This program is part of the open-source Quantum ESPRESSO suite
     for quantum simulation of materials; please cite
         "P. Giannozzi et al., J. Phys.:Condens. Matter 21 395502 (2009);
         "P. Giannozzi et al., J. Phys.:Condens. Matter 29 465901 (2017);
          URL http://www.quantum-espresso.org", 
     in publications or presentations arising from this work. More details at
     http://www.quantum-espresso.org/quote

     Parallel version (MPI), running on    96 processors

     MPI processes distributed on     2 nodes
     R & G space division:  proc/nbgrp/npool/nimage =      96
     Waiting for input...
     Reading input from standard input
     Message from routine read_cards :
     DEPRECATED: no units specified in CELL_PARAMETERS card

     Current dimensions of program PWSCF are:
     Max number of different atomic species (ntypx) = 10
     Max number of k-points (npk) =  40000
     Max angular momentum in pseudopotentials (lmaxx) =  3

     Subspace diagonalization in iterative solution of the eigenvalue problem:
     one sub-group per band group will be used
     scalapack distributed-memory algorithm (size of sub-group:  9*  9 procs)

 
     Parallelization info
     --------------------
     sticks:   dense  smooth     PW     G-vecs:    dense   smooth      PW
     Min          15      15      4                  191      191      32
     Max          16      16      5                  194      194      35
     Sum        1467    1467    463                18489    18489    3237
 


     bravais-lattice index     =            0
     lattice parameter (alat)  =      14.7437  a.u.
     unit-cell volume          =     539.9570 (a.u.)^3
     number of atoms/cell      =            8
     number of atomic types    =            1
     number of electrons       =        32.00
     number of Kohn-Sham states=           20
     kinetic-energy cutoff     =      40.0000  Ry
     charge density cutoff     =     160.0000  Ry
     convergence threshold     =      1.0E-06
     mixing beta               =       0.5000
     number of iterations used =            8  plain     mixing
     Exchange-correlation=  SLA  PW   PBE  PBE
                           (   1   4   3   4   0   0   0)
     nstep                     =          250


     celldm(1)=  14.743673  celldm(2)=   0.000000  celldm(3)=   0.000000
     celldm(4)=   0.000000  celldm(5)=   0.000000  celldm(6)=   0.000000

     crystal axes: (cart. coord. in units of alat)
               a(1) = (   0.999941   0.010879   0.000014 )  
               a(2) = (   0.031722   0.532323   0.000163 )  
               a(3) = (  -0.000041  -0.000122   0.316719 )  

     reciprocal axes: (cart. coord. in units 2 pi/alat)
               b(1) = (  1.000708 -0.059634  0.000106 )  
               b(2) = ( -0.020452  1.879776  0.000722 )  
               b(3) = ( -0.000032 -0.000964  3.157373 )  


     PseudoPot. # 1 for C  read from file:
     ./C.pbe-van_bm.upf
     MD5 check sum: 1a69bf6b8db32088f5b2163dbdb77a27
     Pseudo is Ultrasoft, Zval =  4.0
     Generated by new atomic code, or converted to UPF format
     Using radial grid of  721 points,  4 beta functions with: 
                l(1) =   0
                l(2) =   0
                l(3) =   1
                l(4) =   1
     Q(r) pseudized with  8 coefficients,  rinner =    0.800   0.800   0.800


     atomic species   valence    mass     pseudopotential
        C              4.00    12.00000     C ( 1.00)

     No symmetry found



   Cartesian axes

     site n.     atom                  positions (alat units)
         1           C   tau(   1) = (   0.8929544   0.4041161   0.2695935  )
         2           C   tau(   2) = (   0.3913797   0.5471081   0.2695515  )
         3           C   tau(   3) = (   0.5536912   0.4793349   0.2695610  )
         4           C   tau(   4) = (   0.0539644   0.4641329   0.2696951  )
         5           C   tau(   5) = (   0.6336115   0.4394779   0.1112282  )
         6           C   tau(   6) = (   0.3020772   0.5548818   0.1112280  )
         7           C   tau(   7) = (   0.1012638  -0.0265586   0.1111562  )
         8           C   tau(   8) = (   0.8038782   0.3945413   0.1112302  )

     number of k points=    14  Marzari-Vanderbilt smearing, width (Ry)=  0.0200
                       cart. coord. in units 2pi/alat
        k(    1) = (   0.0000000   0.0000000   0.0000000), wk =   0.0833333
        k(    2) = (  -0.0000081  -0.0002409   0.7893433), wk =   0.1666667
        k(    3) = (   0.0000162   0.0004818  -1.5786867), wk =   0.0833333
        k(    4) = (  -0.0068173   0.6265921   0.0002407), wk =   0.1666667
        k(    5) = (  -0.0068253   0.6263512   0.7895840), wk =   0.1666667
        k(    6) = (  -0.0068011   0.6270739  -1.5784460), wk =   0.1666667
        k(    7) = (  -0.0068092   0.6268330  -0.7891027), wk =   0.1666667
        k(    8) = (  -0.5003540   0.0298170  -0.0000528), wk =   0.0833333
        k(    9) = (  -0.5003621   0.0295761   0.7892906), wk =   0.1666667
        k(   10) = (  -0.5003378   0.0302988  -1.5787395), wk =   0.0833333
        k(   11) = (  -0.5071713   0.6564091   0.0001879), wk =   0.1666667
        k(   12) = (  -0.5071793   0.6561682   0.7895312), wk =   0.1666667
        k(   13) = (  -0.5071551   0.6568909  -1.5784988), wk =   0.1666667
        k(   14) = (  -0.5071632   0.6566500  -0.7891555), wk =   0.1666667

     Dense  grid:    18489 G-vectors     FFT dimensions: (  60,  32,  20)

     Estimated max dynamical RAM per process >       2.59 MB

     Estimated total dynamical RAM >     248.22 MB

     Initial potential from superposition of free atoms

     starting charge   31.99968, renormalised to   32.00000
     Starting wfcs are   32 randomized atomic wfcs

     total cpu time spent up to now is        0.7 secs

     Self-consistent Calculation

     iteration #  1     ecut=    40.00 Ry     beta= 0.50
     Davidson diagonalization with overlap
     ethr =  1.00E-02,  avg # of iterations =  2.4

     total cpu time spent up to now is        1.5 secs

     total energy              =     -91.00180434 Ry
     Harris-Foulkes estimate   =     -91.45151122 Ry
     estimated scf accuracy    <       0.89932094 Ry

     iteration #  2     ecut=    40.00 Ry     beta= 0.50
     Davidson diagonalization with overlap
     ethr =  2.81E-03,  avg # of iterations =  2.1

     total cpu time spent up to now is        2.2 secs

     total energy              =     -91.04411520 Ry
     Harris-Foulkes estimate   =     -91.07880419 Ry
     estimated scf accuracy    <       0.07638281 Ry

     iteration #  3     ecut=    40.00 Ry     beta= 0.50
     Davidson diagonalization with overlap
     ethr =  2.39E-04,  avg # of iterations =  4.0

     total cpu time spent up to now is        3.2 secs

     total energy              =     -91.05575346 Ry
     Harris-Foulkes estimate   =     -91.05595992 Ry
     estimated scf accuracy    <       0.00252762 Ry

     iteration #  4     ecut=    40.00 Ry     beta= 0.50
     Davidson diagonalization with overlap
     ethr =  7.90E-06,  avg # of iterations =  4.3

     total cpu time spent up to now is        4.2 secs

     total energy              =     -91.05600822 Ry
     Harris-Foulkes estimate   =     -91.05614333 Ry
     estimated scf accuracy    <       0.00050795 Ry

     iteration #  5     ecut=    40.00 Ry     beta= 0.50
     Davidson diagonalization with overlap
     ethr =  1.59E-06,  avg # of iterations =  2.7

     total cpu time spent up to now is        4.9 secs

     total energy              =     -91.05608204 Ry
     Harris-Foulkes estimate   =     -91.05610767 Ry
     estimated scf accuracy    <       0.00008606 Ry

     iteration #  6     ecut=    40.00 Ry     beta= 0.50
     Davidson diagonalization with overlap
     ethr =  2.69E-07,  avg # of iterations =  2.0

     total cpu time spent up to now is        5.6 secs

     total energy              =     -91.05610088 Ry
     Harris-Foulkes estimate   =     -91.05610439 Ry
     estimated scf accuracy    <       0.00001459 Ry

     iteration #  7     ecut=    40.00 Ry     beta= 0.50
     Davidson diagonalization with overlap
     ethr =  4.56E-08,  avg # of iterations =  2.0

     total cpu time spent up to now is        6.2 secs

     total energy              =     -91.05610348 Ry
     Harris-Foulkes estimate   =     -91.05610399 Ry
     estimated scf accuracy    <       0.00000110 Ry

     iteration #  8     ecut=    40.00 Ry     beta= 0.50
     Davidson diagonalization with overlap
     ethr =  3.44E-09,  avg # of iterations =  2.9

     total cpu time spent up to now is        7.1 secs

     End of self-consistent calculation

          k = 0.0000 0.0000 0.0000 (  2315 PWs)   bands (ev):

   -14.3087 -12.7048 -12.5901  -8.2278  -7.8063  -2.3970  -1.6480  -1.2420
    -1.1782  -0.2389   0.1263   0.3900   0.4150   2.7311   2.8103   4.0535
     6.9168   9.1530  10.8765  12.0437

          k =-0.0000-0.0002 0.7893 (  2299 PWs)   bands (ev):

   -13.2107 -11.6303 -11.5214  -7.2954  -7.0980  -4.4295  -3.6248  -3.5949
    -1.2186  -0.8212  -0.3101  -0.2765   0.1306   1.2601   1.4025   5.1729
     6.3410  10.1604  10.4680  11.0765

          k = 0.0000 0.0005-1.5787 (  2302 PWs)   bands (ev):

   -10.0501 -10.0327  -8.9776  -8.9395  -7.7703  -7.7346  -4.5430  -4.5409
    -3.5063  -3.4726  -0.6272  -0.5947   2.8437   2.8998   3.2599   3.3804
     7.5064   7.7861   8.2053   8.5530

          k =-0.0068 0.6266 0.0002 (  2317 PWs)   bands (ev):

   -14.2574 -12.6857 -12.5472  -8.2575  -7.8224  -2.7652  -1.7009  -1.4683
    -1.1703  -0.4324  -0.2556   0.3933   0.4192   2.7187   2.8078   4.3617
     7.3764  10.9561  11.2638  12.5675

          k =-0.0068 0.6264 0.7896 (  2302 PWs)   bands (ev):

   -13.1633 -11.6128 -11.4821  -7.3212  -7.1050  -4.4169  -3.6231  -3.5840
    -1.4524  -0.8495  -0.6032  -0.3182   0.1046   0.8873   1.2390   5.4599
     6.3934  10.2437  10.9007  12.4987

          k =-0.0068 0.6271-1.5784 (  2304 PWs)   bands (ev):

   -10.0144  -9.9960  -8.9599  -8.9127  -7.7571  -7.7085  -4.5602  -4.5581
    -3.5179  -3.4800  -0.6365  -0.6079   2.4404   2.4870   3.0791   3.1133
     7.3939   7.3981   8.3591   8.7798

          k =-0.0068 0.6268-0.7891 (  2302 PWs)   bands (ev):

   -13.1633 -11.6129 -11.4821  -7.3212  -7.1049  -4.4169  -3.6231  -3.5839
    -1.4523  -0.8495  -0.6031  -0.3182   0.1047   0.8876   1.2386   5.4599
     6.3932  10.2434  10.9008  12.4981

          k =-0.5004 0.0298-0.0001 (  2320 PWs)   bands (ev):

   -13.8941 -13.8836 -10.6551 -10.6502  -4.9655  -4.9608  -1.4561  -1.3652
    -0.7639  -0.7606   0.9676   1.0108   1.9486   1.9508   2.4818   2.5056
     8.8733   8.9193   9.9056  10.0534

          k =-0.5004 0.0296 0.7893 (  2301 PWs)   bands (ev):

   -12.8013 -12.7915  -9.6388  -9.6342  -5.0749  -5.0683  -3.3695  -3.3664
    -1.8515  -1.8483  -0.2254  -0.1470   0.7680   0.7701   3.2710   3.3132
     8.1201   8.1514  11.2188  11.4067

          k =-0.5003 0.0303-1.5787 (  2324 PWs)   bands (ev):

    -9.6829  -9.6757  -9.6635  -9.6558  -6.3850  -6.3805  -6.3697  -6.3640
    -1.6923  -1.6906  -1.6660  -1.6633   3.0414   3.0723   3.1007   3.1142
     7.9911   7.9924   8.1143   8.1364

          k =-0.5072 0.6564 0.0002 (  2308 PWs)   bands (ev):

   -13.8486 -13.8372 -10.6542 -10.6390  -5.0106  -4.9976  -1.9614  -1.8646
    -0.7566  -0.7544   0.9729   1.0041   1.9482   1.9511   2.4718   2.5644
     9.2455   9.4344  11.6864  12.0734

          k =-0.5072 0.6562 0.7895 (  2315 PWs)   bands (ev):

   -12.7591 -12.7489  -9.6371  -9.6245  -5.0749  -5.0710  -3.3852  -3.3803
    -1.8553  -1.8508  -0.6735  -0.5855   0.7223   0.7298   3.2518   3.3523
     8.2369   8.2842  12.2328  12.2570

          k =-0.5072 0.6569-1.5785 (  2302 PWs)   bands (ev):

    -9.6522  -9.6443  -9.6299  -9.6229  -6.3862  -6.3773  -6.3662  -6.3554
    -1.7107  -1.7051  -1.6836  -1.6794   2.7218   2.7237   2.7676   2.7839
     7.9117   8.0235   8.0922   8.1911

          k =-0.5072 0.6566-0.7892 (  2315 PWs)   bands (ev):

   -12.7594 -12.7486  -9.6382  -9.6235  -5.0742  -5.0717  -3.3863  -3.3792
    -1.8547  -1.8513  -0.6730  -0.5858   0.7226   0.7295   3.2532   3.3509
     8.2357   8.2851  12.2319  12.2572

     the Fermi energy is     5.6940 ev

!    total energy              =     -91.05610374 Ry
     Harris-Foulkes estimate   =     -91.05610374 Ry
     estimated scf accuracy    <       0.00000010 Ry

     The total energy is the sum of the following terms:

     one-electron contribution =     -52.52589781 Ry
     hartree contribution      =      40.45621798 Ry
     xc contribution           =     -28.22197118 Ry
     ewald contribution        =     -50.76522395 Ry
     smearing contrib. (-TS)   =       0.00077122 Ry

     convergence has been achieved in   8 iterations

     Forces acting on atoms (cartesian axes, Ry/au):

     atom    1 type  1   force =    -0.05903639   -0.01251507    0.00025797
     atom    2 type  1   force =    -0.05926913    0.01106863    0.00059843
     atom    3 type  1   force =     0.05789237   -0.01539366    0.00047227
     atom    4 type  1   force =     0.05760309    0.01622396   -0.00070133
     atom    5 type  1   force =    -0.06110612    0.01399544   -0.00044449
     atom    6 type  1   force =     0.06251719    0.00536944   -0.00022910
     atom    7 type  1   force =    -0.06077793   -0.01475361    0.00018464
     atom    8 type  1   force =     0.06217692   -0.00399514   -0.00013840

     Total force =     0.173520     Total SCF correction =     0.000429


     Computing stress (Cartesian axis) and pressure

          total   stress  (Ry/bohr**3)                   (kbar)     P=      130.35
   0.00271431   0.00002547   0.00000319          399.29        3.75        0.47
   0.00002547   0.00001830   0.00000130            3.75        2.69        0.19
   0.00000319   0.00000130  -0.00007436            0.47        0.19      -10.94


     BFGS Geometry Optimization

     number of scf cycles    =   1
     number of bfgs steps    =   0

     enthalpy new            =     -91.0560670333 Ry

     new trust radius        =       0.3153681694 bohr
     new conv_thr            =       0.0000010000 Ry

     new unit-cell volume =    575.78557 a.u.^3 (    85.32262 Ang^3 )
     density =      1.86834 g/cm^3

CELL_PARAMETERS (bohr)
  15.743290988   0.169861864   0.001380298
   0.504434637   7.852274680   0.002687600
  -0.000269547  -0.001649618   4.660911343

ATOMIC_POSITIONS (crystal)
C             0.8655596020        0.7400662701        0.8508451919
C             0.3549914182        1.0221244640        0.8506625618
C             0.5295186372        0.8878700694        0.8507270161
C             0.0301971100        0.8735455703        0.8509276230
C             0.6036598891        0.8151111201        0.3506490319
C             0.2734345551        1.0375538566        0.3505944508
C             0.0988654507       -0.0537117261        0.3510246379
C             0.7851673377        0.7246933756        0.3507594865



     Writing output data file ./pp.save/
     NEW-OLD atomic charge density approx. for the potential
     extrapolated charge   33.99120, renormalised to   32.00000

     total cpu time spent up to now is        7.3 secs

     Self-consistent Calculation

     iteration #  1     ecut=    40.00 Ry     beta= 0.50
     Davidson diagonalization with overlap
     ethr =  1.00E-06,  avg # of iterations = 10.2

     total cpu time spent up to now is        9.9 secs

     total energy              =     -90.88046019 Ry
     Harris-Foulkes estimate   =     -88.49401296 Ry
     estimated scf accuracy    <       0.14091776 Ry

     iteration #  2     ecut=    40.00 Ry     beta= 0.50
     Davidson diagonalization with overlap
     ethr =  4.40E-04,  avg # of iterations =  3.4

     total cpu time spent up to now is       10.8 secs

     total energy              =     -91.06503649 Ry
     Harris-Foulkes estimate   =     -91.09106334 Ry
     estimated scf accuracy    <       0.06864142 Ry

     iteration #  3     ecut=    40.00 Ry     beta= 0.50
     Davidson diagonalization with overlap
     ethr =  2.15E-04,  avg # of iterations =  1.3

     total cpu time spent up to now is       11.4 secs

     total energy              =     -91.06244173 Ry
     Harris-Foulkes estimate   =     -91.06923287 Ry
     estimated scf accuracy    <       0.01842898 Ry

     iteration #  4     ecut=    40.00 Ry     beta= 0.50
     Davidson diagonalization with overlap
     ethr =  5.76E-05,  avg # of iterations =  2.1

     total cpu time spent up to now is       12.1 secs

     total energy              =     -91.06014589 Ry
     Harris-Foulkes estimate   =     -91.06375271 Ry
     estimated scf accuracy    <       0.00629316 Ry

     iteration #  5     ecut=    40.00 Ry     beta= 0.50
     Davidson diagonalization with overlap
     ethr =  1.97E-05,  avg # of iterations =  4.4

     total cpu time spent up to now is       13.2 secs

     total energy              =     -91.06147450 Ry
     Harris-Foulkes estimate   =     -91.06153600 Ry
     estimated scf accuracy    <       0.00015059 Ry

     iteration #  6     ecut=    40.00 Ry     beta= 0.50
     Davidson diagonalization with overlap
     ethr =  4.71E-07,  avg # of iterations =  3.0

     total cpu time spent up to now is       14.1 secs

     total energy              =     -91.06149976 Ry
     Harris-Foulkes estimate   =     -91.06150952 Ry
     estimated scf accuracy    <       0.00002630 Ry

     iteration #  7     ecut=    40.00 Ry     beta= 0.50
     Davidson diagonalization with overlap
     ethr =  8.22E-08,  avg # of iterations =  2.0

     total cpu time spent up to now is       14.9 secs

     total energy              =     -91.06150345 Ry
     Harris-Foulkes estimate   =     -91.06150904 Ry
     estimated scf accuracy    <       0.00001200 Ry

     iteration #  8     ecut=    40.00 Ry     beta= 0.50
     Davidson diagonalization with overlap
     ethr =  3.75E-08,  avg # of iterations =  2.0

     total cpu time spent up to now is       15.6 secs

     total energy              =     -91.06150523 Ry
     Harris-Foulkes estimate   =     -91.06150556 Ry
     estimated scf accuracy    <       0.00000129 Ry

     iteration #  9     ecut=    40.00 Ry     beta= 0.50
     Davidson diagonalization with overlap
     ethr =  4.04E-09,  avg # of iterations =  2.1

     total cpu time spent up to now is       16.3 secs

     End of self-consistent calculation

          k = 0.0000 0.0000 0.0000 (  2315 PWs)   bands (ev):

   -14.2498 -12.8007 -12.7694  -9.5205  -7.2519  -2.6498  -2.0128  -1.4377
    -1.4237  -0.5787  -0.3572  -0.3453  -0.2126   1.2421   2.5488   2.9274
     7.1020   8.7426   9.3172  11.1081

          k =-0.0001-0.0003 0.7908 (  2299 PWs)   bands (ev):

   -13.1514 -11.7306 -11.6997  -8.5998  -6.4325  -4.6933  -3.8976  -3.8108
    -1.7835  -1.7581  -1.4406  -0.4139   0.3156   0.8873   1.3023   3.7214
     6.5569   9.1594  10.0620  10.1631

          k = 0.0001 0.0005-1.5816 (  2302 PWs)   bands (ev):

    -9.9626  -9.9523  -8.9266  -8.8853  -8.2272  -8.2082  -5.8945  -5.8851
    -3.1013  -3.0242  -1.1218  -1.0237   2.8877   2.9718   3.2807   3.3484
     6.4294   6.5870   6.9096   7.2107

          k =-0.0068 0.6263 0.0002 (  2317 PWs)   bands (ev):

   -14.1969 -12.7665 -12.7362  -9.5377  -7.2625  -2.9391  -2.0823  -1.7551
    -1.4166  -0.8657  -0.7117  -0.3524  -0.2102   1.2408   2.7150   2.9570
     7.5299   9.3713  10.8030  11.8952

          k =-0.0068 0.6260 0.7910 (  2302 PWs)   bands (ev):

   -13.1027 -11.6972 -11.6716  -8.6147  -6.4347  -4.6807  -3.8856  -3.8034
    -1.8930  -1.7625  -1.4709  -0.8910   0.1848   0.4865   1.2011   3.8956
     6.5739   9.1875  10.0865  11.3531

          k =-0.0066 0.6268-1.5814 (  2304 PWs)   bands (ev):

    -9.9247  -9.9155  -8.8961  -8.8652  -8.2018  -8.1947  -5.9043  -5.8949
    -3.1112  -3.0285  -1.1350  -1.0334   2.4653   2.5402   3.0431   3.0610
     6.2303   6.2957   6.9689   7.3366

          k =-0.0067 0.6266-0.7906 (  2302 PWs)   bands (ev):

   -13.1027 -11.6972 -11.6716  -8.6147  -6.4347  -4.6807  -3.8855  -3.8034
    -1.8930  -1.7625  -1.4710  -0.8910   0.1848   0.4866   1.2011   3.8957
     6.5740   9.1874  10.0865  11.3530

          k =-0.4686 0.0301-0.0000 (  2320 PWs)   bands (ev):

   -13.8842 -13.8728 -11.0677 -11.0588  -5.2391  -5.2328  -1.6204  -1.5324
    -1.1193  -1.1168   0.5964   0.6737   0.7344   0.7364   1.8323   1.8573
     8.4094   8.4914   9.3825   9.5047

          k =-0.4686 0.0298 0.7908 (  2301 PWs)   bands (ev):

   -12.7916 -12.7810 -10.0511 -10.0427  -5.0740  -5.0715  -3.8969  -3.8936
    -2.5419  -2.5375  -0.4165  -0.3477   0.4733   0.4804   2.5247   2.5948
     7.6702   7.6877  10.6847  10.8522

          k =-0.4684 0.0306-1.5816 (  2324 PWs)   bands (ev):

    -9.6340  -9.6258  -9.6194  -9.6110  -7.0104  -7.0036  -7.0019  -6.9948
    -1.9973  -1.9899  -1.9120  -1.9068   3.0785   3.0886   3.1237   3.1468
     6.7400   6.7835   6.8533   6.9199

          k =-0.4753 0.6564 0.0002 (  2308 PWs)   bands (ev):

   -13.8361 -13.8246 -11.0620 -11.0450  -5.2732  -5.2633  -2.1457  -2.0495
    -1.1126  -1.1110   0.5610   0.6208   0.7349   0.7369   1.8051   1.8744
     8.7413   8.9048  11.1393  11.5103

          k =-0.4754 0.6561 0.7910 (  2315 PWs)   bands (ev):

   -12.7474 -12.7367 -10.0460 -10.0305  -5.0700  -5.0679  -3.9102  -3.9045
    -2.5416  -2.5354  -0.8634  -0.7775   0.3899   0.4023   2.4684   2.5834
     7.7323   7.7517  10.9146  10.9249

          k =-0.4752 0.6569-1.5814 (  2302 PWs)   bands (ev):

    -9.5990  -9.5913  -9.5863  -9.5784  -7.0082  -6.9984  -6.9972  -6.9862
    -2.0105  -2.0060  -1.9218  -1.9179   2.7014   2.7414   2.7487   2.8024
     6.6269   6.7301   6.8174   6.9121

          k =-0.4753 0.6567-0.7906 (  2315 PWs)   bands (ev):

   -12.7474 -12.7367 -10.0458 -10.0306  -5.0693  -5.0686  -3.9092  -3.9055
    -2.5411  -2.5359  -0.8634  -0.7774   0.3902   0.4019   2.4679   2.5840
     7.7330   7.7512  10.9142  10.9251

     the Fermi energy is     4.1189 ev

!    total energy              =     -91.06150505 Ry
     Harris-Foulkes estimate   =     -91.06150578 Ry
     estimated scf accuracy    <       0.00000096 Ry

     The total energy is the sum of the following terms:

     one-electron contribution =     -50.23788979 Ry
     hartree contribution      =      38.58865983 Ry
     xc contribution           =     -27.75637985 Ry
     ewald contribution        =     -51.65678330 Ry
     smearing contrib. (-TS)   =       0.00088806 Ry

     convergence has been achieved in   9 iterations

     Forces acting on atoms (cartesian axes, Ry/au):

     atom    1 type  1   force =     0.08749228    0.05303893   -0.00033138
     atom    2 type  1   force =     0.08856797   -0.05163928   -0.00029113
     atom    3 type  1   force =    -0.10102164    0.04191174   -0.00037209
     atom    4 type  1   force =    -0.10052831   -0.04392268    0.00036619
     atom    5 type  1   force =     0.11492846   -0.02410164    0.00046059
     atom    6 type  1   force =    -0.10125992   -0.04361554    0.00070484
     atom    7 type  1   force =     0.11437901    0.02728964   -0.00083592
     atom    8 type  1   force =    -0.10255787    0.04103882    0.00029889

     Total force =     0.311373     Total SCF correction =     0.001771


     Computing stress (Cartesian axis) and pressure

          total   stress  (Ry/bohr**3)                   (kbar)     P=      -57.17
  -0.00103589  -0.00001043  -0.00000141         -152.39       -1.53       -0.21
  -0.00001043  -0.00034433  -0.00000039           -1.53      -50.65       -0.06
  -0.00000141  -0.00000039   0.00021422           -0.21       -0.06       31.51


     number of scf cycles    =   2
     number of bfgs steps    =   1

     enthalpy old            =     -91.0560670333 Ry
     enthalpy new            =     -91.0614659113 Ry

     CASE: enthalpy_new < enthalpy_old

     new trust radius        =       0.0673830190 bohr
     new conv_thr            =       0.0000005399 Ry

     new unit-cell volume =    571.87290 a.u.^3 (    84.74282 Ang^3 )
     density =      1.88112 g/cm^3

CELL_PARAMETERS (bohr)
  15.671106474   0.168238554   0.001250922
   0.501699430   7.811030164   0.002680513
  -0.000307518  -0.001645000   4.675101604

ATOMIC_POSITIONS (crystal)
C             0.8685237228        0.7436918085        0.8508114397
C             0.3582271151        1.0184564913        0.8506479717
C             0.5257709827        0.8907471013        0.8506938103
C             0.0266474311        0.8706753378        0.8509511056
C             0.6079188783        0.8135138519        0.3506936193
C             0.2699095894        1.0345000099        0.3506750301
C             0.1030027001       -0.0520540797        0.3509271558
C             0.7813935805        0.7277224790        0.3507898676



     Writing output data file ./pp.save/
     NEW-OLD atomic charge density approx. for the potential
     extrapolated charge   31.78106, renormalised to   32.00000

     total cpu time spent up to now is       16.4 secs

     Self-consistent Calculation

     iteration #  1     ecut=    40.00 Ry     beta= 0.50
     Davidson diagonalization with overlap
     ethr =  1.00E-06,  avg # of iterations =  8.7

     total cpu time spent up to now is       18.9 secs

     total energy              =     -91.08953373 Ry
     Harris-Foulkes estimate   =     -91.37046261 Ry
     estimated scf accuracy    <       0.00707591 Ry

     iteration #  2     ecut=    40.00 Ry     beta= 0.50
     Davidson diagonalization with overlap
     ethr =  2.21E-05,  avg # of iterations =  2.6

     total cpu time spent up to now is       19.9 secs

     total energy              =     -91.09139949 Ry
     Harris-Foulkes estimate   =     -91.09197466 Ry
     estimated scf accuracy    <       0.00130911 Ry

     iteration #  3     ecut=    40.00 Ry     beta= 0.50
     Davidson diagonalization with overlap
     ethr =  4.09E-06,  avg # of iterations =  2.1

     total cpu time spent up to now is       20.7 secs

     total energy              =     -91.09145073 Ry
     Harris-Foulkes estimate   =     -91.09154807 Ry
     estimated scf accuracy    <       0.00020802 Ry

     iteration #  4     ecut=    40.00 Ry     beta= 0.50
     Davidson diagonalization with overlap
     ethr =  6.50E-07,  avg # of iterations =  2.5

     total cpu time spent up to now is       21.6 secs

     total energy              =     -91.09147950 Ry
     Harris-Foulkes estimate   =     -91.09153509 Ry
     estimated scf accuracy    <       0.00015015 Ry

     iteration #  5     ecut=    40.00 Ry     beta= 0.50
     Davidson diagonalization with overlap
     ethr =  4.69E-07,  avg # of iterations =  2.0

     total cpu time spent up to now is       22.4 secs

     total energy              =     -91.09150665 Ry
     Harris-Foulkes estimate   =     -91.09150744 Ry
     estimated scf accuracy    <       0.00000442 Ry

     iteration #  6     ecut=    40.00 Ry     beta= 0.50
     Davidson diagonalization with overlap
     ethr =  1.38E-08,  avg # of iterations =  2.1

     total cpu time spent up to now is       23.3 secs

     total energy              =     -91.09150755 Ry
     Harris-Foulkes estimate   =     -91.09150773 Ry
     estimated scf accuracy    <       0.00000098 Ry

     iteration #  7     ecut=    40.00 Ry     beta= 0.50
     Davidson diagonalization with overlap
     ethr =  3.08E-09,  avg # of iterations =  2.0

     total cpu time spent up to now is       24.2 secs

     End of self-consistent calculation

          k = 0.0000 0.0000 0.0000 (  2315 PWs)   bands (ev):

   -14.2027 -12.7511 -12.6851  -9.1158  -7.7533  -2.7473  -2.3380  -1.5401
    -0.9908  -0.4692  -0.1697   0.3120   0.3232   2.1176   2.2090   3.0445
     6.5459   8.7953   9.7874  11.2236

          k =-0.0001-0.0003 0.7884 (  2299 PWs)   bands (ev):

   -13.0996 -11.6728 -11.6101  -8.1608  -7.0062  -4.3420  -3.7164  -3.6980
    -1.6979  -1.4926  -1.0080  -0.4402  -0.1028   0.9975   1.1120   4.2134
     6.0759   9.3149  10.0301  10.2606

          k = 0.0001 0.0005-1.5768 (  2302 PWs)   bands (ev):

    -9.9105  -9.9085  -8.9664  -8.9563  -7.8867  -7.8834  -5.3443  -5.3388
    -3.5514  -3.5031  -1.2572  -1.1982   2.7723   2.8317   3.1097   3.1845
     6.8482   7.0295   7.3208   7.6205

          k =-0.0068 0.6296 0.0002 (  2317 PWs)   bands (ev):

   -14.1480 -12.7248 -12.6400  -9.1327  -7.7625  -2.9639  -2.3815  -1.9669
    -0.9828  -0.7429  -0.5893   0.3175   0.3264   2.0998   2.2076   3.2463
     6.8879   9.9002  10.9248  11.8477

          k =-0.0068 0.6293 0.7886 (  2302 PWs)   bands (ev):

   -13.0491 -11.6486 -11.5688  -8.1755  -7.0084  -4.3267  -3.7075  -3.6930
    -1.7861  -1.5153  -1.0126  -0.9482  -0.1464   0.5758   0.9061   4.3911
     6.0882   9.3738  10.0889  11.6197

          k =-0.0066 0.6301-1.5766 (  2304 PWs)   bands (ev):

    -9.8710  -9.8702  -8.9354  -8.9344  -7.8707  -7.8554  -5.3543  -5.3487
    -3.5601  -3.5065  -1.2693  -1.2103   2.3521   2.4059   2.8814   2.8833
     6.6456   6.6977   7.3716   7.7457

          k =-0.0067 0.6299-0.7882 (  2302 PWs)   bands (ev):

   -13.0491 -11.6486 -11.5688  -8.1755  -7.0084  -4.3267  -3.7076  -3.6929
    -1.7861  -1.5153  -1.0126  -0.9482  -0.1463   0.5758   0.9061   4.3911
     6.0882   9.3738  10.0889  11.6196

          k =-0.4707 0.0302-0.0000 (  2320 PWs)   bands (ev):

   -13.8335 -13.8214 -10.9457 -10.9384  -5.4791  -5.4775  -1.5438  -1.4545
    -0.6447  -0.6421   0.3769   0.4128   1.5520   1.5549   1.8022   1.8412
     8.1379   8.2213   9.4339   9.5642

          k =-0.4708 0.0300 0.7884 (  2301 PWs)   bands (ev):

   -12.7357 -12.7244  -9.9184  -9.9116  -5.2515  -5.2480  -3.6293  -3.6281
    -2.1533  -2.1488  -0.3992  -0.3397   0.2303   0.2525   2.7168   2.7774
     7.5267   7.5346  10.7565  10.9263

          k =-0.4706 0.0308-1.5768 (  2324 PWs)   bands (ev):

    -9.5892  -9.5844  -9.5798  -9.5762  -6.7087  -6.7023  -6.6999  -6.6926
    -2.1918  -2.1889  -2.1428  -2.1388   2.9376   2.9463   2.9867   2.9924
     7.1645   7.1885   7.2835   7.3346

          k =-0.4775 0.6599 0.0002 (  2308 PWs)   bands (ev):

   -13.7833 -13.7719 -10.9384 -10.9209  -5.5146  -5.5063  -2.0811  -1.9823
    -0.6372  -0.6354   0.3415   0.3645   1.5532   1.5554   1.7239   1.8382
     8.4939   8.6348  11.2702  11.6712

          k =-0.4776 0.6596 0.7886 (  2315 PWs)   bands (ev):

   -12.6894 -12.6788  -9.9116  -9.8957  -5.2553  -5.2543  -3.6320  -3.6305
    -2.1531  -2.1482  -0.8227  -0.7375   0.1186   0.1308   2.6222   2.7443
     7.6112   7.6290  11.1778  11.1912

          k =-0.4774 0.6604-1.5766 (  2302 PWs)   bands (ev):

    -9.5516  -9.5503  -9.5446  -9.5424  -6.7054  -6.6951  -6.6926  -6.6805
    -2.2075  -2.2025  -2.1545  -2.1526   2.5719   2.5946   2.6172   2.6515
     7.0330   7.1386   7.2158   7.3140

          k =-0.4774 0.6601-0.7882 (  2315 PWs)   bands (ev):

   -12.6894 -12.6788  -9.9115  -9.8957  -5.2552  -5.2544  -3.6321  -3.6304
    -2.1534  -2.1479  -0.8227  -0.7374   0.1182   0.1311   2.6222   2.7443
     7.6111   7.6290  11.1779  11.1910

     the Fermi energy is     4.6151 ev

!    total energy              =     -91.09150760 Ry
     Harris-Foulkes estimate   =     -91.09150774 Ry
     estimated scf accuracy    <       0.00000016 Ry

     The total energy is the sum of the following terms:

     one-electron contribution =     -49.47727664 Ry
     hartree contribution      =      38.29982095 Ry
     xc contribution           =     -27.75997368 Ry
     ewald contribution        =     -52.15494881 Ry
     smearing contrib. (-TS)   =       0.00087058 Ry

     convergence has been achieved in   7 iterations

     Forces acting on atoms (cartesian axes, Ry/au):

     atom    1 type  1   force =    -0.01941076    0.02861011    0.00003470
     atom    2 type  1   force =    -0.01831038   -0.02948907    0.00012385
     atom    3 type  1   force =     0.01388888   -0.00564074   -0.00001985
     atom    4 type  1   force =     0.01380726    0.00618663   -0.00021196
     atom    5 type  1   force =    -0.00492118    0.01804241    0.00010489
     atom    6 type  1   force =     0.01031972   -0.03528919    0.00011335
     atom    7 type  1   force =    -0.00475811   -0.01774970   -0.00013832
     atom    8 type  1   force =     0.00938457    0.03532955   -0.00000668

     Total force =     0.078927     Total SCF correction =     0.001088


     Computing stress (Cartesian axis) and pressure

          total   stress  (Ry/bohr**3)                   (kbar)     P=      -67.78
  -0.00062773  -0.00000581  -0.00000013          -92.34       -0.85       -0.02
  -0.00000581  -0.00030025   0.00000037           -0.85      -44.17        0.05
  -0.00000013   0.00000037  -0.00045427           -0.02        0.05      -66.83


     number of scf cycles    =   3
     number of bfgs steps    =   2

     enthalpy old            =     -91.0614659113 Ry
     enthalpy new            =     -91.0914687292 Ry

     CASE: enthalpy_new < enthalpy_old

     new trust radius        =       0.0852423379 bohr
     new conv_thr            =       0.0000003533 Ry

     new unit-cell volume =    550.47715 a.u.^3 (    81.57230 Ang^3 )
     density =      1.95424 g/cm^3

CELL_PARAMETERS (bohr)
  15.391787833   0.164300829   0.001145695
   0.491442414   7.742664029   0.002717298
  -0.000328351  -0.001589866   4.622257196

ATOMIC_POSITIONS (crystal)
C             0.8676420712        0.7479136091        0.8508094585
C             0.3576981102        1.0141711592        0.8506682075
C             0.5260486282        0.8905428753        0.8506808946
C             0.0269088980        0.8709128740        0.8509158423
C             0.6083172464        0.8154600059        0.3507254092
C             0.2700742650        1.0295790191        0.3507154506
C             0.1035292404       -0.0539439879        0.3508823688
C             0.7811755407        0.7326174452        0.3507923685



     Writing output data file ./pp.save/
     NEW-OLD atomic charge density approx. for the potential
     extrapolated charge   30.75625, renormalised to   32.00000

     total cpu time spent up to now is       24.2 secs

     Self-consistent Calculation

     iteration #  1     ecut=    40.00 Ry     beta= 0.50
     Davidson diagonalization with overlap
     ethr =  1.00E-06,  avg # of iterations =  8.9

     total cpu time spent up to now is       27.3 secs

     total energy              =     -91.04601612 Ry
     Harris-Foulkes estimate   =     -92.69452337 Ry
     estimated scf accuracy    <       0.03509504 Ry

     iteration #  2     ecut=    40.00 Ry     beta= 0.50
     Davidson diagonalization with overlap
     ethr =  1.10E-04,  avg # of iterations =  4.1

     total cpu time spent up to now is       28.9 secs

     total energy              =     -91.09861776 Ry
     Harris-Foulkes estimate   =     -91.10490407 Ry
     estimated scf accuracy    <       0.01678254 Ry

     iteration #  3     ecut=    40.00 Ry     beta= 0.50
     Davidson diagonalization with overlap
     ethr =  5.24E-05,  avg # of iterations =  1.4

     total cpu time spent up to now is       29.7 secs

     total energy              =     -91.09878497 Ry
     Harris-Foulkes estimate   =     -91.09972248 Ry
     estimated scf accuracy    <       0.00430966 Ry

     iteration #  4     ecut=    40.00 Ry     beta= 0.50
     Davidson diagonalization with overlap
     ethr =  1.35E-05,  avg # of iterations =  2.0

     total cpu time spent up to now is       30.7 secs

     total energy              =     -91.09769088 Ry
     Harris-Foulkes estimate   =     -91.09890248 Ry
     estimated scf accuracy    <       0.00240052 Ry

     iteration #  5     ecut=    40.00 Ry     beta= 0.50
     Davidson diagonalization with overlap
     ethr =  7.50E-06,  avg # of iterations =  2.9

     total cpu time spent up to now is       31.8 secs

     total energy              =     -91.09788829 Ry
     Harris-Foulkes estimate   =     -91.09796735 Ry
     estimated scf accuracy    <       0.00012598 Ry

     iteration #  6     ecut=    40.00 Ry     beta= 0.50
     Davidson diagonalization with overlap
     ethr =  3.94E-07,  avg # of iterations =  2.6

     total cpu time spent up to now is       33.1 secs

     total energy              =     -91.09792117 Ry
     Harris-Foulkes estimate   =     -91.09792508 Ry
     estimated scf accuracy    <       0.00000978 Ry

     iteration #  7     ecut=    40.00 Ry     beta= 0.50
     Davidson diagonalization with overlap
     ethr =  3.06E-08,  avg # of iterations =  2.0

     total cpu time spent up to now is       34.2 secs

     total energy              =     -91.09792201 Ry
     Harris-Foulkes estimate   =     -91.09792234 Ry
     estimated scf accuracy    <       0.00000179 Ry

     iteration #  8     ecut=    40.00 Ry     beta= 0.50
     Davidson diagonalization with overlap
     ethr =  5.59E-09,  avg # of iterations =  1.0

     total cpu time spent up to now is       35.0 secs

     total energy              =     -91.09792168 Ry
     Harris-Foulkes estimate   =     -91.09792213 Ry
     estimated scf accuracy    <       0.00000115 Ry

     iteration #  9     ecut=    40.00 Ry     beta= 0.50
     Davidson diagonalization with overlap
     ethr =  3.60E-09,  avg # of iterations =  1.1

     total cpu time spent up to now is       35.8 secs

     End of self-consistent calculation

          k = 0.0000 0.0000 0.0000 (  2315 PWs)   bands (ev):

   -14.2038 -12.7161 -12.6077  -8.8199  -7.6788  -2.4834  -1.9891  -1.3812
    -0.8459  -0.3158   0.0141   0.5051   0.5724   2.5331   2.5592   3.4107
     6.9447   9.0402  10.5240  11.5852

          k =-0.0001-0.0003 0.7974 (  2299 PWs)   bands (ev):

   -13.0799 -11.6171 -11.5108  -7.8609  -6.8703  -4.2682  -3.5150  -3.4551
    -1.4238  -1.2125  -0.6707  -0.3026   0.1746   1.1960   1.3276   4.6123
     6.4653   9.9650  10.4372  10.7126

          k = 0.0001 0.0006-1.5949 (  2302 PWs)   bands (ev):

    -9.8370  -9.8126  -8.8200  -8.7600  -7.8246  -7.7799  -5.0294  -5.0265
    -3.4036  -3.3870  -0.9400  -0.9348   3.0267   3.0478   3.3540   3.4760
     7.2555   7.4866   7.8766   8.1353

          k =-0.0068 0.6352 0.0002 (  2317 PWs)   bands (ev):

   -14.1476 -12.6899 -12.5595  -8.8369  -7.6872  -2.7830  -2.0275  -1.7406
    -0.8379  -0.5967  -0.4210   0.5078   0.5786   2.5159   2.5579   3.6112
     7.3043  10.6284  11.2296  12.4639

          k =-0.0068 0.6349 0.7976 (  2302 PWs)   bands (ev):

   -13.0280 -11.5932 -11.4666  -7.8756  -6.8723  -4.2521  -3.5103  -3.4443
    -1.5510  -1.2322  -0.7852  -0.6750   0.1196   0.7776   1.1087   4.7895
     6.4761  10.0219  10.6485  12.3911

          k =-0.0067 0.6357-1.5946 (  2304 PWs)   bands (ev):

    -9.7979  -9.7721  -8.7971  -8.7282  -7.8073  -7.7513  -5.0391  -5.0363
    -3.4118  -3.3901  -0.9520  -0.9468   2.5932   2.6117   3.1212   3.1668
     7.0746   7.0766   7.9347   8.2624

          k =-0.0067 0.6354-0.7972 (  2302 PWs)   bands (ev):

   -13.0280 -11.5932 -11.4666  -7.8756  -6.8723  -4.2521  -3.5103  -3.4443
    -1.5509  -1.2322  -0.7852  -0.6750   0.1196   0.7776   1.1087   4.7895
     6.4761  10.0219  10.6485  12.3910

          k =-0.4793 0.0304-0.0000 (  2320 PWs)   bands (ev):

   -13.8205 -13.8086 -10.8130 -10.8073  -5.2309  -5.2299  -1.4369  -1.3480
    -0.4806  -0.4775   0.7480   0.7900   1.8548   1.8562   2.1030   2.1360
     8.6549   8.7260   9.7144   9.8387

          k =-0.4793 0.0301 0.7974 (  2301 PWs)   bands (ev):

   -12.7018 -12.6906  -9.7650  -9.7597  -5.0059  -5.0024  -3.4960  -3.4943
    -1.8839  -1.8811  -0.2150  -0.1466   0.5189   0.5295   3.0138   3.0733
     8.0248   8.0362  11.0553  11.2242

          k =-0.4792 0.0310-1.5949 (  2324 PWs)   bands (ev):

    -9.4964  -9.4878  -9.4680  -9.4592  -6.5261  -6.5214  -6.5157  -6.5099
    -1.9210  -1.9171  -1.9134  -1.9105   3.1666   3.2158   3.2211   3.2576
     7.6480   7.6675   7.7901   7.7972

          k =-0.4861 0.6656 0.0002 (  2308 PWs)   bands (ev):

   -13.7691 -13.7576 -10.8052 -10.7874  -5.2676  -5.2597  -1.9875  -1.8883
    -0.4730  -0.4710   0.7153   0.7428   1.8550   1.8579   2.0161   2.1270
     9.0317   9.1824  11.5943  12.0059

          k =-0.4861 0.6653 0.7976 (  2315 PWs)   bands (ev):

   -12.6543 -12.6438  -9.7578  -9.7416  -5.0084  -5.0073  -3.5002  -3.4985
    -1.8850  -1.8797  -0.6797  -0.5913   0.4380   0.4479   2.9094   3.0329
     8.1091   8.1281  11.8803  11.8973

          k =-0.4859 0.6661-1.5947 (  2302 PWs)   bands (ev):

    -9.4611  -9.4533  -9.4301  -9.4227  -6.5229  -6.5120  -6.5086  -6.4963
    -1.9355  -1.9320  -1.9258  -1.9238   2.8141   2.8308   2.8715   2.8772
     7.5232   7.6322   7.6611   7.7615

          k =-0.4860 0.6659-0.7972 (  2315 PWs)   bands (ev):

   -12.6543 -12.6438  -9.7578  -9.7416  -5.0084  -5.0074  -3.5003  -3.4983
    -1.8851  -1.8795  -0.6796  -0.5913   0.4378   0.4480   2.9094   3.0329
     8.1090   8.1282  11.8803  11.8972

     the Fermi energy is     5.0135 ev

!    total energy              =     -91.09792155 Ry
     Harris-Foulkes estimate   =     -91.09792175 Ry
     estimated scf accuracy    <       0.00000026 Ry

     The total energy is the sum of the following terms:

     one-electron contribution =     -50.05196387 Ry
     hartree contribution      =      39.00309598 Ry
     xc contribution           =     -28.02769477 Ry
     ewald contribution        =     -52.02222956 Ry
     smearing contrib. (-TS)   =       0.00087067 Ry

     convergence has been achieved in   9 iterations

     Forces acting on atoms (cartesian axes, Ry/au):

     atom    1 type  1   force =    -0.00618200    0.01901206    0.00001830
     atom    2 type  1   force =    -0.00587995   -0.01934475    0.00020780
     atom    3 type  1   force =     0.01131280   -0.00283350    0.00018964
     atom    4 type  1   force =     0.01085168    0.00307407   -0.00023525
     atom    5 type  1   force =    -0.01682907    0.01360494   -0.00010952
     atom    6 type  1   force =     0.01196009   -0.02025984   -0.00006760
     atom    7 type  1   force =    -0.01648984   -0.01363664   -0.00001434
     atom    8 type  1   force =     0.01125629    0.02038366    0.00001097

     Total force =     0.055621     Total SCF correction =     0.000704


     Computing stress (Cartesian axis) and pressure

          total   stress  (Ry/bohr**3)                   (kbar)     P=       38.35
   0.00056489   0.00000534   0.00000013           83.10        0.79        0.02
   0.00000534  -0.00018826   0.00000019            0.79      -27.69        0.03
   0.00000013   0.00000019   0.00040553            0.02        0.03       59.66


     number of scf cycles    =   4
     number of bfgs steps    =   3

     enthalpy old            =     -91.0914687292 Ry
     enthalpy new            =     -91.0978841341 Ry

     CASE: enthalpy_new < enthalpy_old

     new trust radius        =       0.0343016045 bohr
     new conv_thr            =       0.0000002038 Ry

     new unit-cell volume =    552.35209 a.u.^3 (    81.85013 Ang^3 )
     density =      1.94761 g/cm^3

CELL_PARAMETERS (bohr)
  15.477402393   0.163992811   0.001152761
   0.494592758   7.686095835   0.002782386
  -0.000330464  -0.001543485   4.646311165

ATOMIC_POSITIONS (crystal)
C             0.8672247095        0.7515443255        0.8508081766
C             0.3575589974        1.0104953422        0.8507112761
C             0.5264279802        0.8904748044        0.8507073426
C             0.0272583507        0.8709905700        0.8508647858
C             0.6078563744        0.8173078100        0.3507193487
C             0.2705402487        1.0256469927        0.3507259710
C             0.1032026510       -0.0557318744        0.3508559366
C             0.7813246881        0.7365250296        0.3507971624



     Writing output data file ./pp.save/
     NEW-OLD atomic charge density approx. for the potential
     extrapolated charge   32.10862, renormalised to   32.00000

     total cpu time spent up to now is       35.9 secs

     Self-consistent Calculation

     iteration #  1     ecut=    40.00 Ry     beta= 0.50
     Davidson diagonalization with overlap
     ethr =  1.00E-06,  avg # of iterations =  5.2

     total cpu time spent up to now is       38.6 secs

     total energy              =     -91.10330586 Ry
     Harris-Foulkes estimate   =     -90.96732019 Ry
     estimated scf accuracy    <       0.00094688 Ry

     iteration #  2     ecut=    40.00 Ry     beta= 0.50
     Davidson diagonalization with overlap
     ethr =  2.96E-06,  avg # of iterations =  2.8

     total cpu time spent up to now is       40.2 secs

     total energy              =     -91.10378140 Ry
     Harris-Foulkes estimate   =     -91.10385322 Ry
     estimated scf accuracy    <       0.00018827 Ry

     iteration #  3     ecut=    40.00 Ry     beta= 0.50
     Davidson diagonalization with overlap
     ethr =  5.88E-07,  avg # of iterations =  2.0

     total cpu time spent up to now is       41.4 secs

     total energy              =     -91.10379747 Ry
     Harris-Foulkes estimate   =     -91.10380832 Ry
     estimated scf accuracy    <       0.00003403 Ry

     iteration #  4     ecut=    40.00 Ry     beta= 0.50
     Davidson diagonalization with overlap
     ethr =  1.06E-07,  avg # of iterations =  2.0

     total cpu time spent up to now is       42.7 secs

     total energy              =     -91.10380149 Ry
     Harris-Foulkes estimate   =     -91.10380807 Ry
     estimated scf accuracy    <       0.00002027 Ry

     iteration #  5     ecut=    40.00 Ry     beta= 0.50
     Davidson diagonalization with overlap
     ethr =  6.34E-08,  avg # of iterations =  2.0

     total cpu time spent up to now is       43.9 secs

     total energy              =     -91.10380523 Ry
     Harris-Foulkes estimate   =     -91.10380525 Ry
     estimated scf accuracy    <       0.00000116 Ry

     iteration #  6     ecut=    40.00 Ry     beta= 0.50
     Davidson diagonalization with overlap
     ethr =  3.62E-09,  avg # of iterations =  2.0

     total cpu time spent up to now is       45.3 secs

     End of self-consistent calculation

          k = 0.0000 0.0000 0.0000 (  2315 PWs)   bands (ev):

   -14.1471 -12.6463 -12.5837  -8.8093  -7.6173  -2.4175  -1.9378  -1.3517
    -0.9201  -0.2485   0.0251   0.4391   0.4542   2.4320   2.5728   3.3747
     6.9881   9.0450  10.5468  11.5328

          k =-0.0001-0.0003 0.7933 (  2299 PWs)   bands (ev):

   -13.0348 -11.5581 -11.4990  -7.8600  -6.8335  -4.2849  -3.5238  -3.5121
    -1.3993  -1.1749  -0.7509  -0.2783   0.2310   1.2072   1.3348   4.5743
     6.4740   9.9416  10.4371  10.6363

          k = 0.0001 0.0006-1.5866 (  2302 PWs)   bands (ev):

    -9.8196  -9.8092  -8.8045  -8.7829  -7.8004  -7.7789  -5.0582  -5.0562
    -3.3668  -3.3341  -0.9251  -0.8923   3.0226   3.0617   3.3683   3.4594
     7.2213   7.4158   7.8298   8.0926

          k =-0.0068 0.6398 0.0002 (  2317 PWs)   bands (ev):

   -14.0880 -12.6169 -12.5328  -8.8231  -7.6230  -2.7264  -1.9837  -1.7172
    -0.9116  -0.5783  -0.4158   0.4438   0.4594   2.4310   2.5523   3.5427
     7.3060  10.6493  11.2906  12.4480

          k =-0.0068 0.6396 0.7935 (  2302 PWs)   bands (ev):

   -12.9802 -11.5312 -11.4522  -7.8719  -6.8326  -4.2678  -3.5179  -3.4988
    -1.5247  -1.1984  -0.7816  -0.7543   0.1708   0.7580   1.0998   4.7194
     6.4565   9.9774  10.5710  12.3284

          k =-0.0067 0.6404-1.5864 (  2304 PWs)   bands (ev):

    -9.7782  -9.7665  -8.7789  -8.7487  -7.7813  -7.7487  -5.0661  -5.0640
    -3.3736  -3.3358  -0.9373  -0.9042   2.5705   2.6053   3.1132   3.1317
     6.9835   7.0110   7.8647   8.1944

          k =-0.0067 0.6401-0.7931 (  2302 PWs)   bands (ev):

   -12.9802 -11.5312 -11.4522  -7.8719  -6.8326  -4.2678  -3.5179  -3.4988
    -1.5247  -1.1984  -0.7817  -0.7543   0.1709   0.7580   1.0998   4.7194
     6.4565   9.9774  10.5710  12.3283

          k =-0.4766 0.0307-0.0000 (  2320 PWs)   bands (ev):

   -13.7664 -13.7538 -10.7775 -10.7709  -5.1879  -5.1869  -1.3827  -1.2943
    -0.5591  -0.5560   0.8021   0.8441   1.7411   1.7432   2.0950   2.1299
     8.6679   8.7404   9.7073   9.8280

          k =-0.4767 0.0304 0.7933 (  2301 PWs)   bands (ev):

   -12.6592 -12.6475  -9.7410  -9.7349  -5.0112  -5.0071  -3.4908  -3.4895
    -1.9319  -1.9280  -0.1736  -0.1051   0.5323   0.5435   3.0044   3.0664
     8.0109   8.0232  11.0280  11.1946

          k =-0.4765 0.0312-1.5866 (  2324 PWs)   bands (ev):

    -9.4805  -9.4717  -9.4699  -9.4601  -6.5289  -6.5233  -6.5193  -6.5128
    -1.9049  -1.9016  -1.8762  -1.8727   3.1805   3.2066   3.2349   3.2474
     7.6055   7.6064   7.7303   7.7578

          k =-0.4834 0.6705 0.0002 (  2308 PWs)   bands (ev):

   -13.7117 -13.7001 -10.7668 -10.7480  -5.2221  -5.2156  -1.9593  -1.8585
    -0.5508  -0.5489   0.7628   0.7901   1.7422   1.7447   1.9796   2.0962
     9.0338   9.1675  11.6318  12.0508

          k =-0.4835 0.6702 0.7935 (  2315 PWs)   bands (ev):

   -12.6086 -12.5980  -9.7310  -9.7140  -5.0104  -5.0098  -3.4952  -3.4935
    -1.9310  -1.9252  -0.6645  -0.5741   0.4530   0.4625   2.8685   2.9991
     8.0726   8.0868  11.8067  11.8256

          k =-0.4833 0.6711-1.5864 (  2302 PWs)   bands (ev):

    -9.4427  -9.4348  -9.4291  -9.4218  -6.5235  -6.5121  -6.5102  -6.4974
    -1.9196  -1.9152  -1.8874  -1.8856   2.8021   2.8064   2.8497   2.8644
     7.4386   7.5493   7.5889   7.6923

          k =-0.4833 0.6708-0.7931 (  2315 PWs)   bands (ev):

   -12.6086 -12.5980  -9.7310  -9.7140  -5.0104  -5.0098  -3.4952  -3.4935
    -1.9310  -1.9252  -0.6646  -0.5741   0.4530   0.4625   2.8685   2.9991
     8.0726   8.0868  11.8066  11.8256

     the Fermi energy is     4.9433 ev

!    total energy              =     -91.10380540 Ry
     Harris-Foulkes estimate   =     -91.10380547 Ry
     estimated scf accuracy    <       0.00000020 Ry

     The total energy is the sum of the following terms:

     one-electron contribution =     -48.77930776 Ry
     hartree contribution      =      38.32819680 Ry
     xc contribution           =     -27.96695202 Ry
     ewald contribution        =     -52.68661326 Ry
     smearing contrib. (-TS)   =       0.00087083 Ry

     convergence has been achieved in   6 iterations

     Forces acting on atoms (cartesian axes, Ry/au):

     atom    1 type  1   force =    -0.00511924    0.01957665    0.00000644
     atom    2 type  1   force =    -0.00443816   -0.01986721    0.00004956
     atom    3 type  1   force =     0.00087990   -0.00096404    0.00005483
     atom    4 type  1   force =     0.00077993    0.00114239   -0.00008163
     atom    5 type  1   force =     0.00077684    0.01029266    0.00004171
     atom    6 type  1   force =     0.00342068   -0.02285026    0.00004143
     atom    7 type  1   force =     0.00090951   -0.01011117   -0.00009493
     atom    8 type  1   force =     0.00279055    0.02278099   -0.00001740

     Total force =     0.045801     Total SCF correction =     0.000693


     Computing stress (Cartesian axis) and pressure

          total   stress  (Ry/bohr**3)                   (kbar)     P=       11.83
   0.00034132   0.00000339   0.00000004           50.21        0.50        0.01
   0.00000339  -0.00019060   0.00000006            0.50      -28.04        0.01
   0.00000004   0.00000006   0.00009051            0.01        0.01       13.31


     number of scf cycles    =   5
     number of bfgs steps    =   4

     enthalpy old            =     -91.0978841341 Ry
     enthalpy new            =     -91.1037678525 Ry

     CASE: enthalpy_new < enthalpy_old

     new trust radius        =       0.0380742838 bohr
     new conv_thr            =       0.0000002285 Ry

     new unit-cell volume =    551.44033 a.u.^3 (    81.71502 Ang^3 )
     density =      1.95083 g/cm^3

CELL_PARAMETERS (bohr)
  15.551338433   0.163500007   0.001160399
   0.497334968   7.623865329   0.002832481
  -0.000332421  -0.001500232   4.654290002

ATOMIC_POSITIONS (crystal)
C             0.8667213226        0.7555093740        0.8508065303
C             0.3573735893        1.0064828209        0.8507421860
C             0.5265414327        0.8904658645        0.8507234923
C             0.0273555272        0.8710207095        0.8508242968
C             0.6079026687        0.8191602815        0.3507280382
C             0.2708446004        1.0212022352        0.3507475247
C             0.1033787404       -0.0575311538        0.3508198778
C             0.7812761186        0.7409428683        0.3507980540



     Writing output data file ./pp.save/
     NEW-OLD atomic charge density approx. for the potential
     extrapolated charge   31.94709, renormalised to   32.00000

     total cpu time spent up to now is       45.4 secs

     Self-consistent Calculation

     iteration #  1     ecut=    40.00 Ry     beta= 0.50
     Davidson diagonalization with overlap
     ethr =  1.00E-06,  avg # of iterations =  5.4

     total cpu time spent up to now is       48.6 secs

     total energy              =     -91.10828148 Ry
     Harris-Foulkes estimate   =     -91.17348589 Ry
     estimated scf accuracy    <       0.00084115 Ry

     iteration #  2     ecut=    40.00 Ry     beta= 0.50
     Davidson diagonalization with overlap
     ethr =  2.63E-06,  avg # of iterations =  2.1

     total cpu time spent up to now is       50.2 secs

     total energy              =     -91.10850300 Ry
     Harris-Foulkes estimate   =     -91.10852668 Ry
     estimated scf accuracy    <       0.00009597 Ry

     iteration #  3     ecut=    40.00 Ry     beta= 0.50
     Davidson diagonalization with overlap
     ethr =  3.00E-07,  avg # of iterations =  1.9

     total cpu time spent up to now is       51.6 secs

     total energy              =     -91.10851213 Ry
     Harris-Foulkes estimate   =     -91.10851331 Ry
     estimated scf accuracy    <       0.00001580 Ry

     iteration #  4     ecut=    40.00 Ry     beta= 0.50
     Davidson diagonalization with overlap
     ethr =  4.94E-08,  avg # of iterations =  1.9

     total cpu time spent up to now is       53.0 secs

     total energy              =     -91.10851406 Ry
     Harris-Foulkes estimate   =     -91.10851449 Ry
     estimated scf accuracy    <       0.00000271 Ry

     iteration #  5     ecut=    40.00 Ry     beta= 0.50
     Davidson diagonalization with overlap
     ethr =  8.48E-09,  avg # of iterations =  2.0

     total cpu time spent up to now is       54.5 secs

     total energy              =     -91.10851451 Ry
     Harris-Foulkes estimate   =     -91.10851459 Ry
     estimated scf accuracy    <       0.00000040 Ry

     iteration #  6     ecut=    40.00 Ry     beta= 0.50
     Davidson diagonalization with overlap
     ethr =  1.24E-09,  avg # of iterations =  2.0

     total cpu time spent up to now is       56.1 secs

     End of self-consistent calculation

          k = 0.0000 0.0000 0.0000 (  2315 PWs)   bands (ev):

   -14.0936 -12.5955 -12.5439  -8.7858  -7.5718  -2.3461  -1.8970  -1.3147
    -0.9100  -0.1826   0.0664   0.4383   0.4568   2.4161   2.6079   3.3796
     7.0537   9.0822  10.6514  11.5200

          k =-0.0001-0.0003 0.7919 (  2299 PWs)   bands (ev):

   -12.9851 -11.5110 -11.4627  -7.8393  -6.7946  -4.2568  -3.5014  -3.4949
    -1.3501  -1.1411  -0.7534  -0.2360   0.2879   1.2471   1.3644   4.5867
     6.5216  10.0046  10.4776  10.6381

          k = 0.0001 0.0006-1.5839 (  2302 PWs)   bands (ev):

    -9.7797  -9.7725  -8.7709  -8.7574  -7.7636  -7.7476  -5.0464  -5.0438
    -3.3264  -3.2928  -0.8924  -0.8567   3.0668   3.1058   3.4104   3.4911
     7.2526   7.4310   7.8706   8.1184

          k =-0.0068 0.6451 0.0002 (  2317 PWs)   bands (ev):

   -14.0313 -12.5625 -12.4899  -8.7959  -7.5744  -2.6651  -1.9437  -1.6928
    -0.9010  -0.5544  -0.3924   0.4442   0.4617   2.4156   2.5846   3.5129
     7.3235  10.7508  11.3919  12.4847

          k =-0.0068 0.6448 0.7921 (  2302 PWs)   bands (ev):

   -12.9275 -11.4808 -11.4131  -7.8479  -6.7909  -4.2383  -3.4935  -3.4804
    -1.4746  -1.1649  -0.7622  -0.7556   0.2227   0.7725   1.1033   4.6976
     6.4756  10.0209  10.5704  12.3707

          k =-0.0067 0.6457-1.5837 (  2304 PWs)   bands (ev):

    -9.7359  -9.7274  -8.7424  -8.7206  -7.7422  -7.7154  -5.0520  -5.0492
    -3.3315  -3.2927  -0.9047  -0.8684   2.5949   2.6302   3.1318   3.1438
     6.9757   7.0080   7.8801   8.1925

          k =-0.0067 0.6454-0.7917 (  2302 PWs)   bands (ev):

   -12.9275 -11.4808 -11.4131  -7.8479  -6.7909  -4.2383  -3.4935  -3.4804
    -1.4746  -1.1650  -0.7623  -0.7556   0.2227   0.7725   1.1032   4.6976
     6.4756  10.0210  10.5705  12.3707

          k =-0.4744 0.0309-0.0000 (  2320 PWs)   bands (ev):

   -13.7152 -13.7023 -10.7404 -10.7340  -5.1491  -5.1478  -1.3210  -1.2330
    -0.5516  -0.5480   0.8597   0.9011   1.7317   1.7338   2.1076   2.1459
     8.7233   8.7987   9.7328   9.8495

          k =-0.4744 0.0307 0.7919 (  2301 PWs)   bands (ev):

   -12.6118 -12.5996  -9.7073  -9.7014  -4.9843  -4.9801  -3.4599  -3.4583
    -1.9197  -1.9161  -0.1156  -0.0475   0.5618   0.5732   3.0296   3.0947
     8.0572   8.0702  11.0450  11.2085

          k =-0.4742 0.0315-1.5839 (  2324 PWs)   bands (ev):

    -9.4426  -9.4361  -9.4337  -9.4257  -6.5032  -6.4980  -6.4947  -6.4881
    -1.8729  -1.8694  -1.8424  -1.8379   3.2237   3.2453   3.2777   3.2857
     7.6297   7.6313   7.7563   7.7860

          k =-0.4811 0.6760 0.0002 (  2308 PWs)   bands (ev):

   -13.6572 -13.6454 -10.7269 -10.7070  -5.1800  -5.1752  -1.9239  -1.8216
    -0.5427  -0.5405   0.8123   0.8387   1.7330   1.7360   1.9611   2.0847
     9.0764   9.1946  11.7110  12.1393

          k =-0.4812 0.6757 0.7921 (  2315 PWs)   bands (ev):

   -12.5581 -12.5472  -9.6948  -9.6768  -4.9818  -4.9802  -3.4629  -3.4612
    -1.9178  -1.9113  -0.6319  -0.5396   0.4822   0.4916   2.8586   2.9969
     8.0942   8.1108  11.8306  11.8524

          k =-0.4810 0.6766-1.5837 (  2302 PWs)   bands (ev):

    -9.4024  -9.3944  -9.3926  -9.3852  -6.4961  -6.4839  -6.4836  -6.4701
    -1.8869  -1.8820  -1.8520  -1.8505   2.8206   2.8286   2.8692   2.8863
     7.4368   7.5494   7.5814   7.6872

          k =-0.4811 0.6763-0.7918 (  2315 PWs)   bands (ev):

   -12.5581 -12.5472  -9.6948  -9.6768  -4.9818  -4.9802  -3.4629  -3.4612
    -1.9178  -1.9113  -0.6320  -0.5397   0.4823   0.4916   2.8586   2.9969
     8.0943   8.1109  11.8306  11.8525

     the Fermi energy is     4.9239 ev

!    total energy              =     -91.10851451 Ry
     Harris-Foulkes estimate   =     -91.10851464 Ry
     estimated scf accuracy    <       0.00000019 Ry

     The total energy is the sum of the following terms:

     one-electron contribution =     -47.64449063 Ry
     hartree contribution      =      37.78070950 Ry
     xc contribution           =     -27.94384081 Ry
     ewald contribution        =     -53.30175148 Ry
     smearing contrib. (-TS)   =       0.00085892 Ry

     convergence has been achieved in   6 iterations

     Forces acting on atoms (cartesian axes, Ry/au):

     atom    1 type  1   force =    -0.00281837    0.01964941   -0.00001278
     atom    2 type  1   force =    -0.00222462   -0.01979414   -0.00000315
     atom    3 type  1   force =    -0.00249328   -0.00108512    0.00002609
     atom    4 type  1   force =    -0.00262146    0.00119036   -0.00002305
     atom    5 type  1   force =     0.00518370    0.01004261    0.00006860
     atom    6 type  1   force =     0.00012213   -0.02318007    0.00002777
     atom    7 type  1   force =     0.00535435   -0.00987806   -0.00006937
     atom    8 type  1   force =    -0.00050245    0.02305501   -0.00001410

     Total force =     0.046147     Total SCF correction =     0.001128


     Computing stress (Cartesian axis) and pressure

          total   stress  (Ry/bohr**3)                   (kbar)     P=        1.42
   0.00022487   0.00000237   0.00000002           33.08        0.35        0.00
   0.00000237  -0.00017930  -0.00000001            0.35      -26.38       -0.00
   0.00000002  -0.00000001  -0.00001655            0.00       -0.00       -2.43


     number of scf cycles    =   6
     number of bfgs steps    =   5

     enthalpy old            =     -91.1037678525 Ry
     enthalpy new            =     -91.1084770211 Ry

     CASE: enthalpy_new < enthalpy_old

     new trust radius        =       0.0575302705 bohr
     new conv_thr            =       0.0000002318 Ry

     new unit-cell volume =    548.57547 a.u.^3 (    81.29050 Ang^3 )
     density =      1.96101 g/cm^3

CELL_PARAMETERS (bohr)
  15.642870926   0.162607348   0.001175897
   0.500752144   7.530514184   0.002895396
  -0.000333052  -0.001440914   4.660103217

ATOMIC_POSITIONS (crystal)
C             0.8660871679        0.7615911063        0.8508000335
C             0.3572143171        1.0003428814        0.8507833939
C             0.5266225414        0.8903489120        0.8507481162
C             0.0273967829        0.8711666157        0.8507698690
C             0.6080387676        0.8221004718        0.3507410583
C             0.2712090495        1.0143832025        0.3507709692
C             0.1037276494       -0.0604035454        0.3507756846
C             0.7810977242        0.7477233557        0.3508008753



     Writing output data file ./pp.save/
     NEW-OLD atomic charge density approx. for the potential
     extrapolated charge   31.83289, renormalised to   32.00000

     total cpu time spent up to now is       56.2 secs

     Self-consistent Calculation

     iteration #  1     ecut=    40.00 Ry     beta= 0.50
     Davidson diagonalization with overlap
     ethr =  1.00E-06,  avg # of iterations =  6.5

     total cpu time spent up to now is       60.5 secs

     total energy              =     -91.11356854 Ry
     Harris-Foulkes estimate   =     -91.31187596 Ry
     estimated scf accuracy    <       0.00234320 Ry

     iteration #  2     ecut=    40.00 Ry     beta= 0.50
     Davidson diagonalization with overlap
     ethr =  7.32E-06,  avg # of iterations =  2.7

     total cpu time spent up to now is       62.6 secs

     total energy              =     -91.11481642 Ry
     Harris-Foulkes estimate   =     -91.11497201 Ry
     estimated scf accuracy    <       0.00045797 Ry

     iteration #  3     ecut=    40.00 Ry     beta= 0.50
     Davidson diagonalization with overlap
     ethr =  1.43E-06,  avg # of iterations =  2.0

     total cpu time spent up to now is       64.3 secs

     total energy              =     -91.11482782 Ry
     Harris-Foulkes estimate   =     -91.11485411 Ry
     estimated scf accuracy    <       0.00008589 Ry

     iteration #  4     ecut=    40.00 Ry     beta= 0.50
     Davidson diagonalization with overlap
     ethr =  2.68E-07,  avg # of iterations =  2.0

     total cpu time spent up to now is       66.0 secs

     total energy              =     -91.11483601 Ry
     Harris-Foulkes estimate   =     -91.11484281 Ry
     estimated scf accuracy    <       0.00001923 Ry

     iteration #  5     ecut=    40.00 Ry     beta= 0.50
     Davidson diagonalization with overlap
     ethr =  6.01E-08,  avg # of iterations =  2.0

     total cpu time spent up to now is       67.7 secs

     total energy              =     -91.11484009 Ry
     Harris-Foulkes estimate   =     -91.11484076 Ry
     estimated scf accuracy    <       0.00000247 Ry

     iteration #  6     ecut=    40.00 Ry     beta= 0.50
     Davidson diagonalization with overlap
     ethr =  7.72E-09,  avg # of iterations =  2.0

     total cpu time spent up to now is       69.5 secs

     total energy              =     -91.11484043 Ry
     Harris-Foulkes estimate   =     -91.11484051 Ry
     estimated scf accuracy    <       0.00000039 Ry

     iteration #  7     ecut=    40.00 Ry     beta= 0.50
     Davidson diagonalization with overlap
     ethr =  1.21E-09,  avg # of iterations =  2.0

     total cpu time spent up to now is       71.4 secs

     End of self-consistent calculation

          k = 0.0000 0.0000 0.0000 (  2315 PWs)   bands (ev):

   -14.0121 -12.5157 -12.4792  -8.7320  -7.5051  -2.2321  -1.8246  -1.2503
    -0.8608  -0.0728   0.1427   0.4736   0.5044   2.4447   2.6717   3.4203
     7.1701   9.1582  10.8464  11.5338

          k =-0.0001-0.0003 0.7910 (  2299 PWs)   bands (ev):

   -12.9063 -11.4337 -11.4004  -7.7873  -6.7314  -4.1949  -3.4493  -3.4370
    -1.2644  -1.0744  -0.7163  -0.1600   0.3798   1.3240   1.4278   4.6407
     6.6150  10.1381  10.5587  10.6917

          k = 0.0001 0.0006-1.5819 (  2302 PWs)   bands (ev):

    -9.7075  -9.7041  -8.7044  -8.7009  -7.6957  -7.6867  -5.0002  -4.9969
    -3.2613  -3.2275  -0.8295  -0.7912   3.1531   3.1913   3.4935   3.5604
     7.3385   7.4951   7.9738   8.1986

          k =-0.0068 0.6531 0.0002 (  2317 PWs)   bands (ev):

   -13.9446 -12.4772 -12.4202  -8.7362  -7.5027  -2.5678  -1.8717  -1.6459
    -0.8510  -0.5092  -0.3448   0.4808   0.5097   2.4447   2.6450   3.4996
     7.3628  10.9388  11.5692  12.5746

          k =-0.0068 0.6528 0.7912 (  2302 PWs)   bands (ev):

   -12.8439 -11.3984 -11.3461  -7.7907  -6.7233  -4.1741  -3.4357  -3.4233
    -1.3875  -1.0982  -0.7212  -0.7167   0.3083   0.8094   1.1256   4.6987
     6.5243  10.1232  10.6133  12.4890

          k =-0.0067 0.6537-1.5817 (  2304 PWs)   bands (ev):

    -9.6597  -9.6551  -8.6713  -8.6600  -7.6706  -7.6514  -5.0022  -4.9987
    -3.2636  -3.2246  -0.8416  -0.8024   2.6504   2.6854   3.1783   3.1821
     7.0031   7.0406   7.9442   8.2308

          k =-0.0067 0.6534-0.7908 (  2302 PWs)   bands (ev):

   -12.8439 -11.3984 -11.3461  -7.7907  -6.7233  -4.1741  -3.4357  -3.4233
    -1.3876  -1.0982  -0.7213  -0.7167   0.3083   0.8093   1.1255   4.6987
     6.5244  10.1234  10.6134  12.4890

          k =-0.4716 0.0314-0.0000 (  2320 PWs)   bands (ev):

   -13.6357 -13.6236 -10.6773 -10.6701  -5.0827  -5.0810  -1.2207  -1.1326
    -0.5036  -0.5017   0.9577   0.9969   1.7646   1.7679   2.1492   2.1918
     8.8350   8.9150   9.7923   9.9050

          k =-0.4716 0.0311 0.7909 (  2301 PWs)   bands (ev):

   -12.5350 -12.5237  -9.6464  -9.6396  -4.9249  -4.9213  -3.3964  -3.3961
    -1.8721  -1.8673  -0.0166   0.0515   0.6214   0.6337   3.0934   3.1609
     8.1586   8.1724  11.0974  11.2568

          k =-0.4715 0.0320-1.5819 (  2324 PWs)   bands (ev):

    -9.3721  -9.3700  -9.3639  -9.3607  -6.4473  -6.4405  -6.4394  -6.4325
    -1.8127  -1.8075  -1.7802  -1.7747   3.3083   3.3233   3.3613   3.3649
     7.7085   7.7100   7.8373   7.8665

          k =-0.4784 0.6844 0.0002 (  2308 PWs)   bands (ev):

   -13.5733 -13.5606 -10.6587 -10.6372  -5.1083  -5.1059  -1.8640  -1.7600
    -0.4947  -0.4924   0.8978   0.9240   1.7673   1.7700   1.9540   2.0885
     9.1598   9.2579  11.8584  12.3018

          k =-0.4784 0.6841 0.7911 (  2315 PWs)   bands (ev):

   -12.4773 -12.4655  -9.6292  -9.6096  -4.9202  -4.9171  -3.3972  -3.3966
    -1.8675  -1.8604  -0.5723  -0.4778   0.5428   0.5520   2.8669   3.0171
     8.1522   8.1815  11.9183  11.9449

          k =-0.4783 0.6850-1.5817 (  2302 PWs)   bands (ev):

    -9.3285  -9.3235  -9.3198  -9.3154  -6.4359  -6.4251  -6.4228  -6.4106
    -1.8240  -1.8198  -1.7878  -1.7857   2.8683   2.8801   2.9172   2.9375
     7.4741   7.5895   7.6079   7.7200

          k =-0.4783 0.6847-0.7908 (  2315 PWs)   bands (ev):

   -12.4773 -12.4655  -9.6292  -9.6096  -4.9202  -4.9171  -3.3973  -3.3965
    -1.8675  -1.8605  -0.5724  -0.4779   0.5429   0.5519   2.8668   3.0171
     8.1522   8.1817  11.9184  11.9450

     the Fermi energy is     4.9334 ev

!    total energy              =     -91.11484049 Ry
     Harris-Foulkes estimate   =     -91.11484051 Ry
     estimated scf accuracy    <       0.00000004 Ry

     The total energy is the sum of the following terms:

     one-electron contribution =     -46.01146443 Ry
     hartree contribution      =      37.02405701 Ry
     xc contribution           =     -27.92779665 Ry
     ewald contribution        =     -54.20046788 Ry
     smearing contrib. (-TS)   =       0.00083146 Ry

     convergence has been achieved in   7 iterations

     Forces acting on atoms (cartesian axes, Ry/au):

     atom    1 type  1   force =    -0.00211110    0.01884921   -0.00001273
     atom    2 type  1   force =    -0.00128704   -0.01895779   -0.00009144
     atom    3 type  1   force =    -0.00523117   -0.00128097   -0.00001948
     atom    4 type  1   force =    -0.00506387    0.00140673    0.00006897
     atom    5 type  1   force =     0.00898561    0.00949643    0.00010974
     atom    6 type  1   force =    -0.00199446   -0.02278860    0.00003932
     atom    7 type  1   force =     0.00908358   -0.00942945   -0.00005994
     atom    8 type  1   force =    -0.00238154    0.02270444   -0.00003444

     Total force =     0.046522     Total SCF correction =     0.000409


     Computing stress (Cartesian axis) and pressure

          total   stress  (Ry/bohr**3)                   (kbar)     P=       -6.67
   0.00012135   0.00000212  -0.00000002           17.85        0.31       -0.00
   0.00000212  -0.00016089  -0.00000011            0.31      -23.67       -0.02
  -0.00000002  -0.00000011  -0.00009638           -0.00       -0.02      -14.18


     number of scf cycles    =   7
     number of bfgs steps    =   6

     enthalpy old            =     -91.1084770211 Ry
     enthalpy new            =     -91.1148031958 Ry

     CASE: enthalpy_new < enthalpy_old

     new trust radius        =       0.0871383472 bohr
     new conv_thr            =       0.0000002279 Ry

     new unit-cell volume =    543.10705 a.u.^3 (    80.48016 Ang^3 )
     density =      1.98076 g/cm^3

CELL_PARAMETERS (bohr)
  15.763847848   0.161498205   0.001184852
   0.505501024   7.390495487   0.002965346
  -0.000337925  -0.001364690   4.665025608

ATOMIC_POSITIONS (crystal)
C             0.8651085336        0.7708357077        0.8507916338
C             0.3569828610        0.9910095455        0.8508263165
C             0.5266432048        0.8900731477        0.8507784857
C             0.0273770642        0.8714989717        0.8507073142
C             0.6083675405        0.8266527095        0.3507679932
C             0.2717266903        1.0039589431        0.3508068141
C             0.1043812787       -0.0648793604        0.3507125135
C             0.7808068269        0.7581033351        0.3507989289



     Writing output data file ./pp.save/
     NEW-OLD atomic charge density approx. for the potential
     extrapolated charge   31.67780, renormalised to   32.00000

     total cpu time spent up to now is       71.5 secs

     Self-consistent Calculation

     iteration #  1     ecut=    40.00 Ry     beta= 0.50
     Davidson diagonalization with overlap
     ethr =  1.00E-06,  avg # of iterations =  7.7

     total cpu time spent up to now is       78.2 secs

     total energy              =     -91.11933349 Ry
     Harris-Foulkes estimate   =     -91.48007716 Ry
     estimated scf accuracy    <       0.00564270 Ry

     iteration #  2     ecut=    40.00 Ry     beta= 0.50
     Davidson diagonalization with overlap
     ethr =  1.76E-05,  avg # of iterations =  3.1

     total cpu time spent up to now is       80.9 secs

     total energy              =     -91.12322245 Ry
     Harris-Foulkes estimate   =     -91.12370007 Ry
     estimated scf accuracy    <       0.00137377 Ry

     iteration #  3     ecut=    40.00 Ry     beta= 0.50
     Davidson diagonalization with overlap
     ethr =  4.29E-06,  avg # of iterations =  2.4

     total cpu time spent up to now is       82.9 secs

     total energy              =     -91.12321816 Ry
     Harris-Foulkes estimate   =     -91.12332821 Ry
     estimated scf accuracy    <       0.00029713 Ry

     iteration #  4     ecut=    40.00 Ry     beta= 0.50
     Davidson diagonalization with overlap
     ethr =  9.29E-07,  avg # of iterations =  2.1

     total cpu time spent up to now is       85.0 secs

     total energy              =     -91.12323647 Ry
     Harris-Foulkes estimate   =     -91.12327624 Ry
     estimated scf accuracy    <       0.00010836 Ry

     iteration #  5     ecut=    40.00 Ry     beta= 0.50
     Davidson diagonalization with overlap
     ethr =  3.39E-07,  avg # of iterations =  2.0

     total cpu time spent up to now is       87.0 secs

     total energy              =     -91.12325797 Ry
     Harris-Foulkes estimate   =     -91.12325934 Ry
     estimated scf accuracy    <       0.00000568 Ry

     iteration #  6     ecut=    40.00 Ry     beta= 0.50
     Davidson diagonalization with overlap
     ethr =  1.78E-08,  avg # of iterations =  2.0

     total cpu time spent up to now is       89.2 secs

     total energy              =     -91.12325855 Ry
     Harris-Foulkes estimate   =     -91.12325894 Ry
     estimated scf accuracy    <       0.00000112 Ry

     iteration #  7     ecut=    40.00 Ry     beta= 0.50
     Davidson diagonalization with overlap
     ethr =  3.51E-09,  avg # of iterations =  2.0

     total cpu time spent up to now is       91.5 secs

     End of self-consistent calculation

          k = 0.0000 0.0000 0.0000 (  2315 PWs)   bands (ev):

   -13.8837 -12.3952 -12.3669  -8.6376  -7.3978  -2.0520  -1.7110  -1.1367
    -0.7601   0.1011   0.2824   0.5693   0.5924   2.5222   2.7798   3.5130
     7.3667   9.2980  11.1642  11.5956

          k =-0.0001-0.0003 0.7901 (  2299 PWs)   bands (ev):

   -12.7802 -11.3155 -11.2896  -7.6941  -6.6254  -4.0843  -3.3448  -3.3349
    -1.1214  -0.9685  -0.6331  -0.0257   0.5240   1.4626   1.5460   4.7520
     6.7774  10.3671  10.7012  10.8120

          k = 0.0001 0.0006-1.5802 (  2302 PWs)   bands (ev):

    -9.5879  -9.5856  -8.5949  -8.5935  -7.5845  -7.5781  -4.9103  -4.9075
    -3.1508  -3.1227  -0.7184  -0.6863   3.3071   3.3377   3.6357   3.6916
     7.4936   7.6280   8.1602   8.3460

          k =-0.0068 0.6654 0.0002 (  2317 PWs)   bands (ev):

   -13.8074 -12.3476 -12.2989  -8.6320  -7.3871  -2.4160  -1.7532  -1.5634
    -0.7488  -0.4319  -0.2599   0.5779   0.5992   2.5234   2.7501   3.5042
     7.4325  11.2440  11.8703  12.7164

          k =-0.0069 0.6651 0.7903 (  2302 PWs)   bands (ev):

   -12.7095 -11.2716 -11.2269  -7.6886  -6.6097  -4.0595  -3.3275  -3.3164
    -1.2430  -0.9894  -0.6453  -0.6303   0.4438   0.8847   1.1749   4.7248
     6.6135  10.2979  10.7026  12.7014

          k =-0.0067 0.6661-1.5800 (  2304 PWs)   bands (ev):

    -9.5334  -9.5298  -8.5542  -8.5455  -7.5528  -7.5373  -4.9061  -4.9031
    -3.1483  -3.1150  -0.7295  -0.6960   2.7525   2.7814   3.2610   3.2620
     7.0752   7.1111   8.0677   8.3092

          k =-0.0068 0.6658-0.7899 (  2302 PWs)   bands (ev):

   -12.7095 -11.2716 -11.2269  -7.6886  -6.6098  -4.0595  -3.3274  -3.3165
    -1.2430  -0.9894  -0.6454  -0.6303   0.4438   0.8845   1.1748   4.7247
     6.6137  10.2981  10.7028  12.7016

          k =-0.4680 0.0320-0.0000 (  2320 PWs)   bands (ev):

   -13.5100 -13.4991 -10.5716 -10.5651  -4.9744  -4.9712  -1.0559  -0.9679
    -0.4053  -0.4033   1.1139   1.1502   1.8475   1.8506   2.2353   2.2873
     9.0301   9.1171   9.9094  10.0154

          k =-0.4680 0.0317 0.7901 (  2301 PWs)   bands (ev):

   -12.4114 -12.4013  -9.5421  -9.5361  -4.8186  -4.8164  -3.2882  -3.2867
    -1.7762  -1.7724   0.1473   0.2144   0.7271   0.7390   3.2144   3.2865
     8.3359   8.3512  11.2069  11.3600

          k =-0.4679 0.0326-1.5803 (  2324 PWs)   bands (ev):

    -9.2550  -9.2539  -9.2480  -9.2460  -6.3459  -6.3399  -6.3398  -6.3332
    -1.7068  -1.6982  -1.6790  -1.6713   3.4529   3.4660   3.5049   3.5092
     7.8524   7.8629   7.9917   8.0162

          k =-0.4748 0.6975 0.0002 (  2308 PWs)   bands (ev):

   -13.4400 -13.4258 -10.5455 -10.5209  -4.9926  -4.9892  -1.7659  -1.6584
    -0.3953  -0.3921   1.0357   1.0628   1.8511   1.8544   1.9637   2.1147
     9.2855   9.3713  12.1179  12.5836

          k =-0.4748 0.6971 0.7903 (  2315 PWs)   bands (ev):

   -12.3467 -12.3335  -9.5180  -9.4957  -4.8105  -4.8045  -3.2852  -3.2823
    -1.7689  -1.7604  -0.4728  -0.3744   0.6491   0.6580   2.8994   3.0682
     8.2547   8.3089  12.0815  12.1186

          k =-0.4747 0.6981-1.5801 (  2302 PWs)   bands (ev):

    -9.2057  -9.2019  -9.1958  -9.1924  -6.3295  -6.3205  -6.3143  -6.3040
    -1.7130  -1.7095  -1.6830  -1.6794   2.9601   2.9706   3.0098   3.0275
     7.5581   7.6712   7.6791   7.7899

          k =-0.4747 0.6978-0.7899 (  2315 PWs)   bands (ev):

   -12.3466 -12.3335  -9.5180  -9.4957  -4.8105  -4.8046  -3.2852  -3.2823
    -1.7689  -1.7604  -0.4730  -0.3745   0.6491   0.6579   2.8994   3.0681
     8.2548   8.3091  12.0816  12.1188

     the Fermi energy is     4.9852 ev

!    total energy              =     -91.12325869 Ry
     Harris-Foulkes estimate   =     -91.12325880 Ry
     estimated scf accuracy    <       0.00000014 Ry

     The total energy is the sum of the following terms:

     one-electron contribution =     -43.50692356 Ry
     hartree contribution      =      35.88855609 Ry
     xc contribution           =     -27.91393846 Ry
     ewald contribution        =     -55.59177262 Ry
     smearing contrib. (-TS)   =       0.00081987 Ry

     convergence has been achieved in   7 iterations

     Forces acting on atoms (cartesian axes, Ry/au):

     atom    1 type  1   force =     0.00123916    0.01794040   -0.00002902
     atom    2 type  1   force =     0.00137223   -0.01774727   -0.00013000
     atom    3 type  1   force =    -0.00692178   -0.00166112   -0.00003668
     atom    4 type  1   force =    -0.00708110    0.00163198    0.00012169
     atom    5 type  1   force =     0.01015284    0.00919615    0.00009913
     atom    6 type  1   force =    -0.00433429   -0.02168915   -0.00002451
     atom    7 type  1   force =     0.01041368   -0.00917868    0.00002502
     atom    8 type  1   force =    -0.00484073    0.02150771   -0.00002565

     Total force =     0.045818     Total SCF correction =     0.001018


     Computing stress (Cartesian axis) and pressure

          total   stress  (Ry/bohr**3)                   (kbar)     P=      -14.43
   0.00000060   0.00000126   0.00000000            0.09        0.19        0.00
   0.00000126  -0.00012785  -0.00000016            0.19      -18.81       -0.02
   0.00000000  -0.00000016  -0.00016696            0.00       -0.02      -24.56


     number of scf cycles    =   8
     number of bfgs steps    =   7

     enthalpy old            =     -91.1148031958 Ry
     enthalpy new            =     -91.1232217701 Ry

     CASE: enthalpy_new < enthalpy_old

     new trust radius        =       0.1325195594 bohr
     new conv_thr            =       0.0000002169 Ry

     new unit-cell volume =    533.36427 a.u.^3 (    79.03643 Ang^3 )
     density =      2.01694 g/cm^3

CELL_PARAMETERS (bohr)
  15.921924853   0.159794121   0.001223714
   0.511868093   7.180466016   0.003060015
  -0.000335363  -0.001255422   4.668598051

ATOMIC_POSITIONS (crystal)
C             0.8638818609        0.7851266862        0.8507745015
C             0.3568307159        0.9766240621        0.8508858904
C             0.5266506501        0.8894937624        0.8508263117
C             0.0272702784        0.8721432250        0.8506214476
C             0.6087605562        0.8338480833        0.3508013365
C             0.2724389776        0.9878703057        0.3508365626
C             0.1053091953       -0.0719666860        0.3506454162
C             0.7802517656        0.7741135612        0.3507985335



     Writing output data file ./pp.save/
     NEW-OLD atomic charge density approx. for the potential
     extrapolated charge   31.41547, renormalised to   32.00000

     total cpu time spent up to now is       91.6 secs

     Self-consistent Calculation

     iteration #  1     ecut=    40.00 Ry     beta= 0.50
     Davidson diagonalization with overlap
     ethr =  1.00E-06,  avg # of iterations =  8.0

     total cpu time spent up to now is       98.4 secs

[...]
     enthalpy new            =     -91.1629967746 Ry

     CASE: enthalpy_new < enthalpy_old

     new trust radius        =       0.0036983937 bohr
     new conv_thr            =       0.0000000100 Ry

     new unit-cell volume =    545.29301 a.u.^3 (    80.80409 Ang^3 )
     density =      1.97282 g/cm^3

CELL_PARAMETERS (bohr)
  16.034257277   2.160581240   0.001055855
   1.777339113   7.545051862   0.009195978
  -0.000772575   0.004264498   4.655090373

ATOMIC_POSITIONS (crystal)
C             0.8588739078        0.8815055146        0.8512805381
C             0.3590686999        0.8803198039        0.8502924086
C             0.5266220088        0.8795048371        0.8499306156
C             0.0260740334        0.8824795429        0.8515912388
C             0.6092457910        0.8795439000        0.3500070603
C             0.2763540628        0.8810458097        0.3504009945
C             0.1087154961       -0.1178256293        0.3515815130
C             0.7764400002        0.8806792212        0.3511056311



     Writing output data file ./pp.save/
     NEW-OLD atomic charge density approx. for the potential
     extrapolated charge   32.02264, renormalised to   32.00000

     total cpu time spent up to now is     2156.6 secs

     Self-consistent Calculation

     iteration #  1     ecut=    40.00 Ry     beta= 0.50
     Davidson diagonalization with overlap
     ethr =  1.00E-06,  avg # of iterations =  2.5

     Threshold (ethr) on eigenvalues was too large:
     Diagonalizing with lowered threshold

     Davidson diagonalization with overlap
     ethr =  4.12E-08,  avg # of iterations =  2.6

     total cpu time spent up to now is     2183.8 secs

     total energy              =     -91.16302823 Ry
     Harris-Foulkes estimate   =     -91.13726890 Ry
     estimated scf accuracy    <       0.00001312 Ry

     iteration #  2     ecut=    40.00 Ry     beta= 0.50
     Davidson diagonalization with overlap
     ethr =  4.10E-08,  avg # of iterations =  2.7

     total cpu time spent up to now is     2198.5 secs

     total energy              =     -91.16304324 Ry
     Harris-Foulkes estimate   =     -91.16304522 Ry
     estimated scf accuracy    <       0.00000574 Ry

     iteration #  3     ecut=    40.00 Ry     beta= 0.50
     Davidson diagonalization with overlap
     ethr =  1.79E-08,  avg # of iterations =  1.1

     total cpu time spent up to now is     2207.8 secs

     total energy              =     -91.16304275 Ry
     Harris-Foulkes estimate   =     -91.16304353 Ry
     estimated scf accuracy    <       0.00000159 Ry

     iteration #  4     ecut=    40.00 Ry     beta= 0.50
     Davidson diagonalization with overlap
     ethr =  4.98E-09,  avg # of iterations =  2.0

     total cpu time spent up to now is     2220.9 secs

     total energy              =     -91.16304292 Ry
     Harris-Foulkes estimate   =     -91.16304300 Ry
     estimated scf accuracy    <       0.00000022 Ry

     iteration #  5     ecut=    40.00 Ry     beta= 0.50
     Davidson diagonalization with overlap
     ethr =  7.00E-10,  avg # of iterations =  2.0

     total cpu time spent up to now is     2233.0 secs

     End of self-consistent calculation

          k = 0.0000 0.0000 0.0000 (  2315 PWs)   bands (ev):

   -13.9388 -12.4528 -12.4511  -8.6886  -7.5502  -1.7749  -1.7730  -1.4955
    -0.8074  -0.0759  -0.0747   0.5381   0.5410   2.5011   2.6635   3.0183
     7.1485   9.0772  11.7350  11.7360

          k = 0.0001-0.0010 0.7918 (  2299 PWs)   bands (ev):

   -12.8327 -11.3715 -11.3697  -7.7452  -6.7585  -4.1424  -3.3905  -3.3880
    -1.0458  -1.0437  -0.6686  -0.2134   0.5516   1.1556   1.1603   4.3678
     6.6327  10.4981  10.8478  10.8522

          k =-0.0002 0.0020-1.5836 (  2302 PWs)   bands (ev):

    -9.6339  -9.6332  -8.6498  -8.6480  -7.6503  -7.6482  -4.9571  -4.9568
    -3.2753  -3.2746  -0.7875  -0.7860   3.2614   3.2623   3.4419   3.4494
     7.4242   7.4308   8.2464   8.2472

          k =-0.0906 0.6727-0.0006 (  2317 PWs)   bands (ev):

   -13.8649 -12.4542 -12.3860  -8.7175  -7.5721  -2.2300  -1.7963  -1.7941
    -0.7971  -0.6972  -0.0498   0.5393   0.5482   2.4973   2.6605   3.2623
     7.4967  11.6661  11.9488  12.8980

          k =-0.0906 0.6717 0.7912 (  2302 PWs)   bands (ev):

   -12.7648 -11.3727 -11.3100  -7.7708  -6.7704  -4.1201  -3.3927  -3.3666
    -1.0600  -1.0579  -0.9042  -0.6784   0.5449   0.5783   1.1766   4.5973
     6.6507  10.6877  10.9257  13.0460

          k =-0.0908 0.6747-1.5842 (  2304 PWs)   bands (ev):

    -9.5821  -9.5812  -8.6258  -8.6236  -7.6299  -7.6285  -4.9754  -4.9750
    -3.2892  -3.2884  -0.7982  -0.7967   2.7431   2.7494   3.2072   3.2089
     7.1893   7.1956   8.4489   8.4517

          k =-0.0907 0.6737-0.7924 (  2302 PWs)   bands (ev):

   -12.7643 -11.3723 -11.3101  -7.7709  -6.7706  -4.1206  -3.3922  -3.3676
    -1.0601  -1.0579  -0.9081  -0.6782   0.5450   0.5782   1.1731   4.5989
     6.6547  10.6869  10.9317  13.0599

          k =-0.4748 0.1119-0.0002 (  2320 PWs)   bands (ev):

   -13.5652 -13.5624 -10.6527 -10.6506  -5.0549  -5.0527  -1.1453  -1.1421
    -0.4519  -0.4489   1.2549   1.2566   1.6423   1.6448   1.8174   1.8198
     9.2115   9.2203   9.7663   9.7738

          k =-0.4747 0.1109 0.7916 (  2301 PWs)   bands (ev):

   -12.4644 -12.4616  -9.6200  -9.6179  -4.8850  -4.8821  -3.3553  -3.3528
    -1.8229  -1.8206   0.1243   0.1284   0.5899   0.5919   2.8413   2.8460
     8.4487   8.4497  11.1637  11.1746

          k =-0.4750 0.1138-1.5838 (  2324 PWs)   bands (ev):

    -9.3048  -9.3018  -9.2995  -9.2966  -6.4134  -6.4119  -6.4083  -6.4068
    -1.7966  -1.7951  -1.7825  -1.7808   3.3418   3.3493   3.3495   3.3527
     7.8192   7.8214   7.8254   7.8275

          k =-0.5655 0.7846-0.0008 (  2308 PWs)   bands (ev):

   -13.5234 -13.4801 -10.6875 -10.6212  -5.0927  -5.0751  -1.9484  -1.5585
    -0.4450  -0.4381   1.2449   1.2502   1.3793   1.8143   1.8215   2.0165
     9.4889   9.6166  11.2527  13.1665

          k =-0.5654 0.7836 0.7910 (  2315 PWs)   bands (ev):

   -12.4260 -12.3861  -9.6513  -9.5908  -4.8937  -4.8741  -3.3614  -3.3486
    -1.8357  -1.8115  -0.6296  -0.2626   0.5800   0.5862   2.5870   3.1701
     8.3528   8.5606  12.4089  12.9141

          k =-0.5656 0.7865-1.5844 (  2302 PWs)   bands (ev):

    -9.2725  -9.2711  -9.2438  -9.2429  -6.4331  -6.4327  -6.3910  -6.3907
    -1.8125  -1.8110  -1.7964  -1.7947   2.8612   2.8647   3.0528   3.0588
     7.6306   7.6363   7.9808   7.9835

          k =-0.5656 0.7856-0.7926 (  2315 PWs)   bands (ev):

   -12.4255 -12.3859  -9.6510  -9.5912  -4.8929  -4.8756  -3.3628  -3.3476
    -1.8352  -1.8120  -0.6318  -0.2671   0.5808   0.5854   2.5886   3.1691
     8.3550   8.5665  12.4207  12.9195

     the Fermi energy is     4.8257 ev

!    total energy              =     -91.16304296 Ry
     Harris-Foulkes estimate   =     -91.16304296 Ry
     estimated scf accuracy    <          9.6E-09 Ry

     The total energy is the sum of the following terms:

     one-electron contribution =     -44.70742716 Ry
     hartree contribution      =      36.42118981 Ry
     xc contribution           =     -27.96244728 Ry
     ewald contribution        =     -54.91519759 Ry
     smearing contrib. (-TS)   =       0.00083927 Ry

     convergence has been achieved in   5 iterations

     Forces acting on atoms (cartesian axes, Ry/au):

     atom    1 type  1   force =    -0.00026403   -0.00027127   -0.00049577
     atom    2 type  1   force =     0.00003029   -0.00007219    0.00012990
     atom    3 type  1   force =     0.00038056    0.00033459    0.00073355
     atom    4 type  1   force =     0.00059503   -0.00036528   -0.00037026
     atom    5 type  1   force =    -0.00074696    0.00002442    0.00074877
     atom    6 type  1   force =    -0.00036097    0.00008890    0.00068762
     atom    7 type  1   force =     0.00046070   -0.00001596   -0.00113677
     atom    8 type  1   force =    -0.00009462    0.00027679   -0.00029704

     Total force =     0.002289     Total SCF correction =     0.000147


     Computing stress (Cartesian axis) and pressure

          total   stress  (Ry/bohr**3)                   (kbar)     P=        0.55
   0.00000532   0.00000103  -0.00000105            0.78        0.15       -0.15
   0.00000103   0.00000510  -0.00000031            0.15        0.75       -0.05
  -0.00000105  -0.00000031   0.00000073           -0.15       -0.05        0.11


     number of scf cycles    =  46
     number of bfgs steps    =  44

     enthalpy old            =     -91.1629967746 Ry
     enthalpy new            =     -91.1630058917 Ry

     CASE: enthalpy_new < enthalpy_old

     new trust radius        =       0.0055443748 bohr
     new conv_thr            =       0.0000000100 Ry

     new unit-cell volume =    545.89777 a.u.^3 (    80.89370 Ang^3 )
     density =      1.97063 g/cm^3

CELL_PARAMETERS (bohr)
  16.033712010   2.164917462   0.001068503
   1.780099481   7.554166466   0.009116222
  -0.000775297   0.004202713   4.655152515

ATOMIC_POSITIONS (crystal)
C             0.8589089780        0.8812903633        0.8511420385
C             0.3590381051        0.8804834475        0.8504374629
C             0.5265763791        0.8798193331        0.8501658974
C             0.0261395213        0.8821164668        0.8513439518
C             0.6091881406        0.8798820648        0.3502259686
C             0.2763382563        0.8810993118        0.3505091483
C             0.1087623887       -0.1181030358        0.3513534648
C             0.7764422309        0.8806650484        0.3510120678



     Writing output data file ./pp.save/
     NEW-OLD atomic charge density approx. for the potential
     extrapolated charge   32.03545, renormalised to   32.00000

     total cpu time spent up to now is     2233.5 secs

     Self-consistent Calculation

     iteration #  1     ecut=    40.00 Ry     beta= 0.50
     Davidson diagonalization with overlap
     ethr =  1.00E-06,  avg # of iterations =  2.3

     Threshold (ethr) on eigenvalues was too large:
     Diagonalizing with lowered threshold

     Davidson diagonalization with overlap
     ethr =  5.96E-08,  avg # of iterations =  2.1

     total cpu time spent up to now is     2259.3 secs

     total energy              =     -91.16301775 Ry
     Harris-Foulkes estimate   =     -91.12250017 Ry
     estimated scf accuracy    <       0.00001927 Ry

     iteration #  2     ecut=    40.00 Ry     beta= 0.50
     Davidson diagonalization with overlap
     ethr =  6.02E-08,  avg # of iterations =  3.1

     total cpu time spent up to now is     2276.2 secs

     total energy              =     -91.16305377 Ry
     Harris-Foulkes estimate   =     -91.16305789 Ry
     estimated scf accuracy    <       0.00001254 Ry

     iteration #  3     ecut=    40.00 Ry     beta= 0.50
     Davidson diagonalization with overlap
     ethr =  3.92E-08,  avg # of iterations =  1.0

     total cpu time spent up to now is     2285.7 secs

     total energy              =     -91.16305156 Ry
     Harris-Foulkes estimate   =     -91.16305419 Ry
     estimated scf accuracy    <       0.00000433 Ry

     iteration #  4     ecut=    40.00 Ry     beta= 0.50
     Davidson diagonalization with overlap
     ethr =  1.35E-08,  avg # of iterations =  2.0

     total cpu time spent up to now is     2299.0 secs

     total energy              =     -91.16305236 Ry
     Harris-Foulkes estimate   =     -91.16305237 Ry
     estimated scf accuracy    <       0.00000005 Ry

     iteration #  5     ecut=    40.00 Ry     beta= 0.50
     Davidson diagonalization with overlap
     ethr =  1.67E-10,  avg # of iterations =  2.5

     total cpu time spent up to now is     2313.6 secs

     total energy              =     -91.16305236 Ry
     Harris-Foulkes estimate   =     -91.16305237 Ry
     estimated scf accuracy    <       0.00000002 Ry

     iteration #  6     ecut=    40.00 Ry     beta= 0.50
     Davidson diagonalization with overlap
     ethr =  7.32E-11,  avg # of iterations =  2.0

     total cpu time spent up to now is     2326.0 secs

     End of self-consistent calculation

          k = 0.0000 0.0000 0.0000 (  2315 PWs)   bands (ev):

   -13.9491 -12.4630 -12.4619  -8.6996  -7.5610  -1.7855  -1.7843  -1.5097
    -0.8186  -0.0887  -0.0880   0.5272   0.5293   2.4897   2.6527   3.0075
     7.1376   9.0615  11.7206  11.7214

          k = 0.0001-0.0010 0.7918 (  2299 PWs)   bands (ev):

   -12.8432 -11.3817 -11.3806  -7.7562  -6.7693  -4.1533  -3.4013  -3.3993
    -1.0565  -1.0550  -0.6799  -0.2274   0.5407   1.1428   1.1473   4.3570
     6.6212  10.4828  10.8365  10.8406

          k =-0.0002 0.0019-1.5836 (  2302 PWs)   bands (ev):

    -9.6444  -9.6440  -8.6602  -8.6591  -7.6609  -7.6591  -4.9681  -4.9680
    -3.2860  -3.2856  -0.7982  -0.7973   3.2483   3.2488   3.4294   3.4367
     7.4115   7.4180   8.2357   8.2362

          k =-0.0907 0.6720-0.0006 (  2317 PWs)   bands (ev):

   -13.8760 -12.4649 -12.3973  -8.7284  -7.5828  -2.2392  -1.8068  -1.8050
    -0.8085  -0.7054  -0.0612   0.5281   0.5367   2.4859   2.6497   3.2516
     7.4858  11.6457  11.9240  12.8852

          k =-0.0907 0.6710 0.7912 (  2302 PWs)   bands (ev):

   -12.7759 -11.3835 -11.3213  -7.7817  -6.7812  -4.1313  -3.4036  -3.3779
    -1.0706  -1.0689  -0.9136  -0.6896   0.5342   0.5699   1.1652   4.5866
     6.6401  10.6780  10.9139  13.0262

          k =-0.0909 0.6739-1.5842 (  2304 PWs)   bands (ev):

    -9.5931  -9.5924  -8.6366  -8.6350  -7.6408  -7.6397  -4.9864  -4.9861
    -3.2998  -3.2993  -0.8087  -0.8078   2.7335   2.7397   3.1974   3.1989
     7.1791   7.1852   8.4380   8.4407

          k =-0.0908 0.6729-0.7924 (  2302 PWs)   bands (ev):

   -12.7755 -11.3830 -11.3214  -7.7818  -6.7815  -4.1317  -3.4032  -3.3789
    -1.0706  -1.0690  -0.9174  -0.6894   0.5343   0.5698   1.1617   4.5882
     6.6440  10.6772  10.9198  13.0399

          k =-0.4749 0.1119-0.0002 (  2320 PWs)   bands (ev):

   -13.5757 -13.5727 -10.6633 -10.6615  -5.0659  -5.0636  -1.1584  -1.1566
    -0.4633  -0.4599   1.2441   1.2457   1.6307   1.6326   1.8063   1.8082
     9.2023   9.2092   9.7519   9.7574

          k =-0.4748 0.1109 0.7916 (  2301 PWs)   bands (ev):

   -12.4750 -12.4720  -9.6306  -9.6288  -4.8960  -4.8930  -3.3664  -3.3637
    -1.8338  -1.8319   0.1110   0.1143   0.5790   0.5808   2.8296   2.8340
     8.4374   8.4386  11.1494  11.1589

          k =-0.4750 0.1139-1.5838 (  2324 PWs)   bands (ev):

    -9.3148  -9.3117  -9.3111  -9.3078  -6.4236  -6.4220  -6.4198  -6.4185
    -1.8056  -1.8040  -1.7956  -1.7937   3.3297   3.3357   3.3371   3.3388
     7.8080   7.8097   7.8134   7.8150

          k =-0.5656 0.7839-0.0008 (  2308 PWs)   bands (ev):

   -13.5343 -13.4914 -10.6981 -10.6324  -5.1032  -5.0860  -1.9570  -1.5688
    -0.4564  -0.4494   1.2342   1.2395   1.3710   1.8031   1.8100   2.0040
     9.4797   9.6036  11.2292  13.1531

          k =-0.5655 0.7829 0.7910 (  2315 PWs)   bands (ev):

   -12.4370 -12.3973  -9.6619  -9.6021  -4.9046  -4.8852  -3.3723  -3.3596
    -1.8467  -1.8229  -0.6383  -0.2729   0.5692   0.5753   2.5786   3.1578
     8.3434   8.5487  12.3909  12.9007

          k =-0.5658 0.7858-1.5844 (  2302 PWs)   bands (ev):

    -9.2833  -9.2821  -9.2550  -9.2544  -6.4438  -6.4434  -6.4023  -6.4020
    -1.8216  -1.8202  -1.8090  -1.8073   2.8519   2.8553   3.0427   3.0485
     7.6212   7.6267   7.9691   7.9716

          k =-0.5657 0.7848-0.7926 (  2315 PWs)   bands (ev):

   -12.4365 -12.3971  -9.6616  -9.6025  -4.9038  -4.8867  -3.3737  -3.3588
    -1.8462  -1.8233  -0.6404  -0.2773   0.5700   0.5745   2.5801   3.1568
     8.3455   8.5545  12.4027  12.9057

     the Fermi energy is     4.8150 ev

!    total energy              =     -91.16305236 Ry
     Harris-Foulkes estimate   =     -91.16305236 Ry
     estimated scf accuracy    <          9.7E-10 Ry

     The total energy is the sum of the following terms:

     one-electron contribution =     -44.90710597 Ry
     hartree contribution      =      36.50820720 Ry
     xc contribution           =     -27.96226139 Ry
     ewald contribution        =     -54.80273136 Ry
     smearing contrib. (-TS)   =       0.00083916 Ry

     convergence has been achieved in   6 iterations

     Forces acting on atoms (cartesian axes, Ry/au):

     atom    1 type  1   force =    -0.00020647   -0.00020170   -0.00039894
     atom    2 type  1   force =     0.00006572   -0.00001160    0.00005404
     atom    3 type  1   force =     0.00016571    0.00037053    0.00056483
     atom    4 type  1   force =     0.00050114   -0.00030111   -0.00017474
     atom    5 type  1   force =    -0.00068119   -0.00017013    0.00050695
     atom    6 type  1   force =    -0.00019311   -0.00000460    0.00052236
     atom    7 type  1   force =     0.00042229    0.00002216   -0.00088801
     atom    8 type  1   force =    -0.00007410    0.00029645   -0.00018649

     Total force =     0.001806     Total SCF correction =     0.000025


     Computing stress (Cartesian axis) and pressure

          total   stress  (Ry/bohr**3)                   (kbar)     P=        0.50
   0.00000511   0.00000094  -0.00000100            0.75        0.14       -0.15
   0.00000094   0.00000484  -0.00000027            0.14        0.71       -0.04
  -0.00000100  -0.00000027   0.00000023           -0.15       -0.04        0.03


     number of scf cycles    =  47
     number of bfgs steps    =  45

     enthalpy old            =     -91.1630058917 Ry
     enthalpy new            =     -91.1630152541 Ry

     CASE: enthalpy_new < enthalpy_old

     new trust radius        =       0.0083110561 bohr
     new conv_thr            =       0.0000000100 Ry

     new unit-cell volume =    546.83117 a.u.^3 (    81.03202 Ang^3 )
     density =      1.96727 g/cm^3

CELL_PARAMETERS (bohr)
  16.033338518   2.169634919   0.001085776
   1.783165984   7.567691559   0.009033603
  -0.000776116   0.004132341   4.655212974

ATOMIC_POSITIONS (crystal)
C             0.8589351081        0.8811468193        0.8509985197
C             0.3590170851        0.8805954909        0.8505900325
C             0.5265405851        0.8800256062        0.8504079430
C             0.0261911101        0.8818572537        0.8510969980
C             0.6091333757        0.8801238704        0.3504454550
C             0.2763308063        0.8811446841        0.3506118116
C             0.1088003763       -0.1182975132        0.3511208403
C             0.7764455534        0.8806567886        0.3509183999



     Writing output data file ./pp.save/
     NEW-OLD atomic charge density approx. for the potential
     extrapolated charge   32.05462, renormalised to   32.00000

     total cpu time spent up to now is     2326.5 secs

     Self-consistent Calculation

     iteration #  1     ecut=    40.00 Ry     beta= 0.50
     Davidson diagonalization with overlap
     ethr =  1.00E-06,  avg # of iterations =  2.4

     total cpu time spent up to now is     2341.2 secs

     total energy              =     -91.16297920 Ry
     Harris-Foulkes estimate   =     -91.10010808 Ry
     estimated scf accuracy    <       0.00003771 Ry

     iteration #  2     ecut=    40.00 Ry     beta= 0.50
     Davidson diagonalization with overlap
     ethr =  1.18E-07,  avg # of iterations =  3.1

     total cpu time spent up to now is     2358.2 secs

     total energy              =     -91.16306397 Ry
     Harris-Foulkes estimate   =     -91.16307323 Ry
     estimated scf accuracy    <       0.00002878 Ry

     iteration #  3     ecut=    40.00 Ry     beta= 0.50
     Davidson diagonalization with overlap
     ethr =  8.99E-08,  avg # of iterations =  1.0

     total cpu time spent up to now is     2367.9 secs

     total energy              =     -91.16305858 Ry
     Harris-Foulkes estimate   =     -91.16306497 Ry
     estimated scf accuracy    <       0.00001033 Ry

     iteration #  4     ecut=    40.00 Ry     beta= 0.50
     Davidson diagonalization with overlap
