
     Program PWSCF v.6.5 starts on 10Jul2022 at  4:47:56 

     This program is part of the open-source Quantum ESPRESSO suite
     for quantum simulation of materials; please cite
         "P. Giannozzi et al., J. Phys.:Condens. Matter 21 395502 (2009);
         "P. Giannozzi et al., J. Phys.:Condens. Matter 29 465901 (2017);
          URL http://www.quantum-espresso.org", 
     in publications or presentations arising from this work. More details at
     http://www.quantum-espresso.org/quote

     Parallel version (MPI), running on    96 processors

     MPI processes distributed on     2 nodes
     R & G space division:  proc/nbgrp/npool/nimage =      96
     Waiting for input...
     Reading input from standard input
     Message from routine read_cards :
     DEPRECATED: no units specified in CELL_PARAMETERS card

     Current dimensions of program PWSCF are:
     Max number of different atomic species (ntypx) = 10
     Max number of k-points (npk) =  40000
     Max angular momentum in pseudopotentials (lmaxx) =  3

     Subspace diagonalization in iterative solution of the eigenvalue problem:
     one sub-group per band group will be used
     scalapack distributed-memory algorithm (size of sub-group:  9*  9 procs)

 
     Parallelization info
     --------------------
     sticks:   dense  smooth     PW     G-vecs:    dense   smooth      PW
     Min          15      15      4                  195      195      31
     Max          16      16      6                  198      198      35
     Sum        1507    1507    455                18839    18839    3123
 


     bravais-lattice index     =            0
     lattice parameter (alat)  =      12.7215  a.u.
     unit-cell volume          =     550.8080 (a.u.)^3
     number of atoms/cell      =            8
     number of atomic types    =            1
     number of electrons       =        32.00
     number of Kohn-Sham states=           20
     kinetic-energy cutoff     =      40.0000  Ry
     charge density cutoff     =     160.0000  Ry
     convergence threshold     =      1.0E-08
     mixing beta               =       0.5000
     number of iterations used =            8  plain     mixing
     Exchange-correlation=  SLA  PW   PBE  PBE
                           (   1   4   3   4   0   0   0)
     nstep                     =          250


     celldm(1)=  12.721468  celldm(2)=   0.000000  celldm(3)=   0.000000
     celldm(4)=   0.000000  celldm(5)=   0.000000  celldm(6)=   0.000000

     crystal axes: (cart. coord. in units of alat)
               a(1) = (   0.998580  -0.053264   0.001179 )  
               a(2) = (  -0.000220   0.731747   0.001116 )  
               a(3) = (   0.000338   0.000440   0.366145 )  

     reciprocal axes: (cart. coord. in units 2 pi/alat)
               b(1) = (  1.001440  0.000303 -0.000925 )  
               b(2) = (  0.072897  1.366616 -0.001710 )  
               b(3) = ( -0.003447 -0.004167  2.731168 )  


     PseudoPot. # 1 for C  read from file:
     ./C.pbe-van_bm.upf
     MD5 check sum: 1a69bf6b8db32088f5b2163dbdb77a27
     Pseudo is Ultrasoft, Zval =  4.0
     Generated by new atomic code, or converted to UPF format
     Using radial grid of  721 points,  4 beta functions with: 
                l(1) =   0
                l(2) =   0
                l(3) =   1
                l(4) =   1
     Q(r) pseudized with  8 coefficients,  rinner =    0.800   0.800   0.800


     atomic species   valence    mass     pseudopotential
        C              4.00    12.00000     C ( 1.00)

     No symmetry found



   Cartesian axes

     site n.     atom                  positions (alat units)
         1           C   tau(   1) = (   0.1356455   0.3068873   0.0061137  )
         2           C   tau(   2) = (   0.3027185   0.1758846   0.0059577  )
         3           C   tau(   3) = (   0.3853151   0.1105999  -0.1770857  )
         4           C   tau(   4) = (   1.0516257   0.3188340   0.1903482  )
         5           C   tau(   5) = (   0.8020626   0.5153326   0.3731783  )
         6           C   tau(   6) = (   0.8849323   0.4504608   0.5562748  )
         7           C   tau(   7) = (   0.6348723   0.6461878   0.0072948  )
         8           C   tau(   8) = (   0.5525947  -0.0202237   0.1892566  )

     number of k points=    16  Marzari-Vanderbilt smearing, width (Ry)=  0.0200
                       cart. coord. in units 2pi/alat
        k(    1) = (   0.0000000   0.0000000   0.0000000), wk =   0.0666667
        k(    2) = (  -0.0006894  -0.0008334   0.5462335), wk =   0.1333333
        k(    3) = (  -0.0013789  -0.0016669   1.0924671), wk =   0.1333333
        k(    4) = (   0.0242991   0.4555388  -0.0005701), wk =   0.1333333
        k(    5) = (   0.0236097   0.4547054   0.5456634), wk =   0.1333333
        k(    6) = (   0.0229203   0.4538719   1.0918970), wk =   0.1333333
        k(    7) = (   0.0256780   0.4572057  -1.0930372), wk =   0.1333333
        k(    8) = (   0.0249886   0.4563723  -0.5468036), wk =   0.1333333
        k(    9) = (  -0.5007198  -0.0001513   0.0004624), wk =   0.0666667
        k(   10) = (  -0.5014092  -0.0009848   0.5466960), wk =   0.1333333
        k(   11) = (  -0.5020986  -0.0018182   1.0929295), wk =   0.1333333
        k(   12) = (  -0.4764206   0.4553875  -0.0001077), wk =   0.1333333
        k(   13) = (  -0.4771101   0.4545541   0.5461258), wk =   0.1333333
        k(   14) = (  -0.4777995   0.4537206   1.0923594), wk =   0.1333333
        k(   15) = (  -0.4750417   0.4570544  -1.0925747), wk =   0.1333333
        k(   16) = (  -0.4757312   0.4562210  -0.5463412), wk =   0.1333333

     Dense  grid:    18839 G-vectors     FFT dimensions: (  54,  40,  20)

     Estimated max dynamical RAM per process >       1.46 MB

     Estimated total dynamical RAM >     140.50 MB

     Initial potential from superposition of free atoms

     starting charge   31.99968, renormalised to   32.00000
     Starting wfcs are   32 randomized atomic wfcs

     total cpu time spent up to now is        0.7 secs

     Self-consistent Calculation

     iteration #  1     ecut=    40.00 Ry     beta= 0.50
     Davidson diagonalization with overlap
     ethr =  1.00E-02,  avg # of iterations =  2.2

     total cpu time spent up to now is        1.7 secs

     total energy              =     -91.11751087 Ry
     Harris-Foulkes estimate   =     -91.49736077 Ry
     estimated scf accuracy    <       0.77861138 Ry

     iteration #  2     ecut=    40.00 Ry     beta= 0.50
     Davidson diagonalization with overlap
     ethr =  2.43E-03,  avg # of iterations =  2.4

     total cpu time spent up to now is        2.4 secs

     total energy              =     -91.14658629 Ry
     Harris-Foulkes estimate   =     -91.17908922 Ry
     estimated scf accuracy    <       0.07194797 Ry

     iteration #  3     ecut=    40.00 Ry     beta= 0.50
     Davidson diagonalization with overlap
     ethr =  2.25E-04,  avg # of iterations =  3.9

     total cpu time spent up to now is        3.6 secs

     total energy              =     -91.15800730 Ry
     Harris-Foulkes estimate   =     -91.15801580 Ry
     estimated scf accuracy    <       0.00203404 Ry

     iteration #  4     ecut=    40.00 Ry     beta= 0.50
     Davidson diagonalization with overlap
     ethr =  6.36E-06,  avg # of iterations =  3.8

     total cpu time spent up to now is        4.7 secs

     total energy              =     -91.15818933 Ry
     Harris-Foulkes estimate   =     -91.15825766 Ry
     estimated scf accuracy    <       0.00017206 Ry

     iteration #  5     ecut=    40.00 Ry     beta= 0.50
     Davidson diagonalization with overlap
     ethr =  5.38E-07,  avg # of iterations =  2.1

     total cpu time spent up to now is        5.5 secs

     total energy              =     -91.15822452 Ry
     Harris-Foulkes estimate   =     -91.15822596 Ry
     estimated scf accuracy    <       0.00000553 Ry

     iteration #  6     ecut=    40.00 Ry     beta= 0.50
     Davidson diagonalization with overlap
     ethr =  1.73E-08,  avg # of iterations =  2.6

     total cpu time spent up to now is        6.5 secs

     total energy              =     -91.15822516 Ry
     Harris-Foulkes estimate   =     -91.15822571 Ry
     estimated scf accuracy    <       0.00000152 Ry

     iteration #  7     ecut=    40.00 Ry     beta= 0.50
     Davidson diagonalization with overlap
     ethr =  4.75E-09,  avg # of iterations =  2.0

     total cpu time spent up to now is        8.5 secs

     total energy              =     -91.15822537 Ry
     Harris-Foulkes estimate   =     -91.15822536 Ry
     estimated scf accuracy    <       0.00000002 Ry

     iteration #  8     ecut=    40.00 Ry     beta= 0.50
     Davidson diagonalization with overlap
     ethr =  6.08E-11,  avg # of iterations =  3.0

     total cpu time spent up to now is        9.6 secs

     End of self-consistent calculation

          k = 0.0000 0.0000 0.0000 (  2359 PWs)   bands (ev):

   -14.0401 -12.5104 -12.5076  -8.7925  -7.6640  -1.9009  -1.8979  -1.6290
    -0.9203  -0.6261  -0.6239   0.4405   0.4436   2.4161   2.5457   3.0467
     7.1638   8.9334  12.8009  12.8345

          k =-0.0007-0.0008 0.5462 (  2369 PWs)   bands (ev):

   -13.3315 -11.8194 -11.8165  -8.1873  -7.1051  -3.3534  -2.6316  -2.6283
    -1.1058  -1.1029  -0.8036   0.1539   0.1877   0.1921   1.1206   3.9090
     6.8710   9.8436  11.4807  11.4870

          k =-0.0014-0.0017 1.0925 (  2345 PWs)   bands (ev):

   -11.2462  -9.8058  -9.8027  -8.0420  -6.3858  -6.3746  -6.3720  -4.6222
    -3.4708  -1.8938  -0.9659  -0.9633   1.5462   2.3097   2.3163   4.7669
     6.4344   7.8918   7.9022  10.3450

          k = 0.0243 0.4555-0.0006 (  2364 PWs)   bands (ev):

   -13.8418 -13.3038 -11.4412 -10.0574  -6.1742  -4.0941  -1.8097  -1.6942
    -0.7549  -0.2807   0.2193   1.1209   1.3026   1.8842   2.0811   2.5404
     8.1626  10.4059  10.4259  12.7722

          k = 0.0236 0.4547 0.5457 (  2352 PWs)   bands (ev):

   -13.1365 -12.6049 -10.7632  -9.4087  -5.7314  -4.0001  -3.1354  -2.4275
    -1.5092  -0.9713  -0.8553  -0.4495   0.3297   1.0904   1.8876   3.3239
     7.7725   9.5975  11.2847  13.1442

          k = 0.0229 0.4539 1.0919 (  2347 PWs)   bands (ev):

   -11.0611 -10.5535  -8.8499  -8.0690  -7.0941  -7.0615  -5.4110  -4.2653
    -3.6044  -2.1072  -1.2397  -0.6609   1.4045   1.4909   3.4540   4.3162
     6.7640   7.1459   9.1907  10.1163

          k = 0.0257 0.4572-1.0930 (  2348 PWs)   bands (ev):

   -11.0603 -10.5537  -8.8511  -8.0688  -7.0959  -7.0602  -5.4107  -4.2647
    -3.6042  -2.1073  -1.2399  -0.6607   1.3940   1.4949   3.4558   4.3260
     6.7678   7.1457   9.1827  10.1126

          k = 0.0250 0.4564-0.5468 (  2354 PWs)   bands (ev):

   -13.1359 -12.6050 -10.7637  -9.4087  -5.7322  -3.9987  -3.1357  -2.4284
    -1.5096  -0.9773  -0.8529  -0.4484   0.3308   1.0895   1.8911   3.3265
     7.7756   9.5946  11.3079  13.1384

          k =-0.5007-0.0002 0.0005 (  2372 PWs)   bands (ev):

   -13.6472 -13.6466 -10.7197 -10.7189  -5.1884  -5.1880  -1.4710  -1.4698
    -0.5589  -0.5577   1.1412   1.1425   1.2675   1.2682   1.7289   1.7306
     9.4901   9.4913  10.3006  10.3039

          k =-0.5014-0.0010 0.5467 (  2349 PWs)   bands (ev):

   -12.9429 -12.9420 -10.0579 -10.0571  -4.8724  -4.8717  -2.8668  -2.8651
    -0.9449  -0.9433  -0.6471  -0.6417   0.8223   0.8239   2.0586   2.0598
     8.9314   8.9376  11.1696  11.1902

          k =-0.5021-0.0018 1.0929 (  2350 PWs)   bands (ev):

   -10.8724 -10.8712  -8.3279  -8.3265  -7.2368  -7.2359  -4.8133  -4.8123
    -2.8640  -2.8634  -0.8763  -0.8755   1.6584   1.6670   3.6782   3.6795
     6.9578   6.9667   9.3795   9.3800

          k =-0.4764 0.4554-0.0001 (  2352 PWs)   bands (ev):

   -13.9194 -13.0180 -12.0130  -9.2719  -7.1429  -2.9891  -2.3833  -0.8695
    -0.7917  -0.4635   0.0443   0.2107   0.8655   2.3270   2.3689   2.8146
     7.7005  10.2804  11.5179  12.5282

          k =-0.4771 0.4546 0.5461 (  2351 PWs)   bands (ev):

   -13.2153 -12.3187 -11.3274  -8.6478  -6.6157  -3.2793  -3.2686  -2.0584
    -1.8395  -1.5292  -0.3297  -0.0244   0.3354   1.0035   1.1377   3.6323
     7.2570  10.6721  11.1858  12.2809

          k =-0.4778 0.4537 1.0924 (  2356 PWs)   bands (ev):

   -11.1427 -10.2712  -9.3511  -7.9905  -6.8015  -6.6496  -5.9222  -4.3066
    -3.7242  -1.6791  -1.4497  -0.6786   0.9161   2.4517   2.9761   4.2400
     6.5477   7.8726   8.6227  10.2720

          k =-0.4750 0.4571-1.0926 (  2353 PWs)   bands (ev):

   -11.1420 -10.2712  -9.3515  -7.9917  -6.8023  -6.6493  -5.9209  -4.3066
    -3.7239  -1.6791  -1.4492  -0.6790   0.9103   2.4476   2.9852   4.2459
     6.5512   7.8755   8.6129  10.2681

          k =-0.4757 0.4562-0.5463 (  2353 PWs)   bands (ev):

   -13.2149 -12.3187 -11.3277  -8.6483  -6.6152  -3.2799  -3.2700  -2.0567
    -1.8381  -1.5326  -0.3309  -0.0247   0.3335   1.0091   1.1381   3.6346
     7.2587  10.6716  11.1901  12.2752

     the Fermi energy is     4.9979 ev

!    total energy              =     -91.15822538 Ry
     Harris-Foulkes estimate   =     -91.15822539 Ry
     estimated scf accuracy    <          7.4E-09 Ry

     The total energy is the sum of the following terms:

     one-electron contribution =     -46.67815256 Ry
     hartree contribution      =      37.29118682 Ry
     xc contribution           =     -27.96514615 Ry
     ewald contribution        =     -53.80648240 Ry
     smearing contrib. (-TS)   =       0.00036890 Ry

     convergence has been achieved in   8 iterations

     Forces acting on atoms (cartesian axes, Ry/au):

     atom    1 type  1   force =     0.01423969   -0.01101923   -0.00053426
     atom    2 type  1   force =    -0.01394920    0.01071774    0.00067445
     atom    3 type  1   force =     0.01430719   -0.01123601    0.00009469
     atom    4 type  1   force =    -0.01477172    0.01161309   -0.00029484
     atom    5 type  1   force =    -0.01409897    0.01109343    0.00090781
     atom    6 type  1   force =     0.01473231   -0.01151376    0.00022073
     atom    7 type  1   force =     0.01422771   -0.01115979   -0.00055714
     atom    8 type  1   force =    -0.01468702    0.01150452   -0.00051143

     Total force =     0.051637     Total SCF correction =     0.000060


     Computing stress (Cartesian axis) and pressure

          total   stress  (Ry/bohr**3)                   (kbar)     P=        0.75
  -0.00011602   0.00008760  -0.00000094          -17.07       12.89       -0.14
   0.00008760  -0.00008082   0.00000115           12.89      -11.89        0.17
  -0.00000094   0.00000115   0.00021209           -0.14        0.17       31.20


     BFGS Geometry Optimization

     number of scf cycles    =   1
     number of bfgs steps    =   0

     enthalpy new            =     -91.1581879393 Ry

     new trust radius        =       0.0248804677 bohr
     new conv_thr            =       0.0000000100 Ry

     new unit-cell volume =    551.00137 a.u.^3 (    81.64998 Ang^3 )
     density =      1.95238 g/cm^3

CELL_PARAMETERS (bohr)
  12.665048480  -0.648408460   0.014761196
   0.017594568   9.290069395   0.014543098
   0.004190217   0.005732074   4.682589311

ATOMIC_POSITIONS (crystal)
C             0.1370487317        0.4281729175        0.0148360499
C             0.3021041186        0.2634953411        0.0146400669
C             0.3871929941        0.1784139320       -0.4854198669
C             1.0518974618        0.5132219418        0.5148558998
C             0.8019183211        0.7632028105        1.0144950830
C             0.8869874443        0.6780125128        1.5143991678
C             0.6370947865        0.9282417513        0.0149221875
C             0.5520531418        0.0134727929        0.5149614120



     Writing output data file ./pp.save/
     NEW-OLD atomic charge density approx. for the potential
     extrapolated charge   32.01123, renormalised to   32.00000

     total cpu time spent up to now is        9.9 secs

     Self-consistent Calculation

     iteration #  1     ecut=    40.00 Ry     beta= 0.50
     Davidson diagonalization with overlap
     ethr =  1.00E-06,  avg # of iterations =  5.6

     total cpu time spent up to now is       11.8 secs

     total energy              =     -91.15730766 Ry
     Harris-Foulkes estimate   =     -91.14452441 Ry
     estimated scf accuracy    <       0.00117132 Ry

     iteration #  2     ecut=    40.00 Ry     beta= 0.50
     Davidson diagonalization with overlap
     ethr =  3.66E-06,  avg # of iterations =  1.0

     total cpu time spent up to now is       12.4 secs

     total energy              =     -91.15730410 Ry
     Harris-Foulkes estimate   =     -91.15738131 Ry
     estimated scf accuracy    <       0.00014182 Ry

     iteration #  3     ecut=    40.00 Ry     beta= 0.50
     Davidson diagonalization with overlap
     ethr =  4.43E-07,  avg # of iterations =  2.2

     total cpu time spent up to now is       13.3 secs

     total energy              =     -91.15733161 Ry
     Harris-Foulkes estimate   =     -91.15733196 Ry
     estimated scf accuracy    <       0.00000261 Ry

     iteration #  4     ecut=    40.00 Ry     beta= 0.50
     Davidson diagonalization with overlap
     ethr =  8.17E-09,  avg # of iterations =  2.2

     total cpu time spent up to now is       14.1 secs

     total energy              =     -91.15733217 Ry
     Harris-Foulkes estimate   =     -91.15733211 Ry
     estimated scf accuracy    <       0.00000061 Ry

     iteration #  5     ecut=    40.00 Ry     beta= 0.50
     Davidson diagonalization with overlap
     ethr =  1.89E-09,  avg # of iterations =  1.9

     total cpu time spent up to now is       14.9 secs

     total energy              =     -91.15733219 Ry
     Harris-Foulkes estimate   =     -91.15733225 Ry
     estimated scf accuracy    <       0.00000014 Ry

     iteration #  6     ecut=    40.00 Ry     beta= 0.50
     Davidson diagonalization with overlap
     ethr =  4.42E-10,  avg # of iterations =  2.0

     total cpu time spent up to now is       15.7 secs

     End of self-consistent calculation

          k = 0.0000 0.0000 0.0000 (  2359 PWs)   bands (ev):

   -14.0379 -12.4970 -12.4952  -8.6106  -7.8495  -1.9853  -1.9834  -1.6275
    -0.9004  -0.5930  -0.5917   0.5344   0.5364   2.2721   2.6836   3.2695
     6.9326   8.9338  12.6435  12.7949

          k =-0.0007-0.0008 0.5434 (  2369 PWs)   bands (ev):

   -13.3355 -11.8121 -11.8102  -8.0030  -7.3222  -3.3141  -2.7183  -2.7150
    -1.0194  -1.0164  -0.8184   0.2004   0.2052   0.3896   0.8606   4.1201
     6.6324   9.8294  11.4246  11.4288

          k =-0.0014-0.0017 1.0867 (  2345 PWs)   bands (ev):

   -11.2715  -9.8280  -9.8260  -8.1437  -6.3566  -6.3540  -6.1937  -4.7190
    -3.2637  -2.1002  -0.9692  -0.9672   1.4782   2.2429   2.2516   4.6010
     6.6100   7.9436   7.9511  10.4604

          k = 0.0234 0.4564-0.0006 (  2364 PWs)   bands (ev):

   -13.8384 -13.2969 -11.4185 -10.0118  -6.2302  -4.1483  -1.8056  -1.6810
    -0.7272  -0.2292   0.0729   1.1933   1.4579   1.6557   2.3097   2.6915
     7.9968  10.3189  10.4308  12.7747

          k = 0.0227 0.4556 0.5428 (  2352 PWs)   bands (ev):

   -13.1392 -12.6039 -10.7468  -9.3693  -5.8189  -4.1018  -3.0799  -2.3338
    -1.5368  -0.9835  -0.8585  -0.3866   0.3526   1.0096   1.9320   3.4425
     7.6244   9.5195  11.2716  13.1027

          k = 0.0220 0.4547 1.0861 (  2347 PWs)   bands (ev):

   -11.0857 -10.5759  -8.8890  -8.1762  -7.0266  -6.9696  -5.3777  -4.1813
    -3.6274  -2.1087  -1.3216  -0.6869   1.3386   1.4299   3.3606   4.1872
     6.9036   7.2366   9.2546  10.2181

          k = 0.0247 0.4581-1.0873 (  2348 PWs)   bands (ev):

   -11.0846 -10.5765  -8.8886  -8.1784  -7.0279  -6.9680  -5.3762  -4.1817
    -3.6286  -2.1074  -1.3206  -0.6882   1.3290   1.4323   3.3656   4.1940
     6.9109   7.2326   9.2484  10.2131

          k = 0.0240 0.4573-0.5439 (  2354 PWs)   bands (ev):

   -13.1386 -12.6042 -10.7470  -9.3698  -5.8180  -4.1035  -3.0815  -2.3316
    -1.5342  -0.9892  -0.8567  -0.3881   0.3502   1.0118   1.9366   3.4440
     7.6290   9.5145  11.2950  13.0974

          k =-0.5022 0.0010 0.0004 (  2372 PWs)   bands (ev):

   -13.6423 -13.6419 -10.6886 -10.6876  -5.2381  -5.2375  -1.4624  -1.4610
    -0.5215  -0.5207   0.9538   0.9554   1.3581   1.3590   1.9217   1.9235
     9.3891   9.3904  10.3085  10.3118

          k =-0.5029 0.0001 0.5438 (  2349 PWs)   bands (ev):

   -12.9441 -12.9435 -10.0332 -10.0321  -4.9631  -4.9613  -2.7930  -2.7920
    -0.9338  -0.9314  -0.6558  -0.6499   0.7998   0.8026   2.1225   2.1235
     8.8338   8.8379  11.1617  11.1819

          k =-0.5035-0.0007 1.0872 (  2350 PWs)   bands (ev):

   -10.8958 -10.8950  -8.4033  -8.4017  -7.1597  -7.1570  -4.7605  -4.7592
    -2.8724  -2.8714  -0.9250  -0.9237   1.5914   1.6012   3.5882   3.5933
     7.0423   7.0466   9.4582   9.4598

          k =-0.4788 0.4574-0.0001 (  2352 PWs)   bands (ev):

   -13.9167 -13.0086 -11.9959  -9.1873  -7.2326  -3.0555  -2.3823  -0.9046
    -0.8472  -0.4388   0.1137   0.2597   0.9874   2.1085   2.5838   2.9985
     7.5017  10.2958  11.4757  12.5306

          k =-0.4795 0.4565 0.5432 (  2351 PWs)   bands (ev):

   -13.2187 -12.3155 -11.3163  -8.5688  -6.7302  -3.3748  -3.2362  -2.1140
    -1.7369  -1.5436  -0.2762   0.1199   0.3399   0.9710   1.0308   3.7877
     7.0718  10.6098  11.1911  12.2529

          k =-0.4802 0.4557 1.0866 (  2356 PWs)   bands (ev):

   -11.1675 -10.2937  -9.3777  -8.0975  -6.7823  -6.4900  -5.8987  -4.3648
    -3.5805  -1.8216  -1.4491  -0.6922   0.8519   2.3817   2.9090   4.0920
     6.7110   7.9311   8.6944  10.3806

          k =-0.4775 0.4591-1.0868 (  2353 PWs)   bands (ev):

   -11.1669 -10.2932  -9.3792  -8.0976  -6.7811  -6.4917  -5.8988  -4.3638
    -3.5794  -1.8225  -1.4500  -0.6912   0.8457   2.3798   2.9150   4.0998
     6.7123   7.9381   8.6814  10.3769

          k =-0.4781 0.4582-0.5435 (  2353 PWs)   bands (ev):

   -13.2184 -12.3152 -11.3169  -8.5689  -6.7307  -3.3727  -3.2361  -2.1156
    -1.7394  -1.5471  -0.2736   0.1220   0.3388   0.9688   1.0354   3.7912
     7.0718  10.6115  11.1957  12.2454

     the Fermi energy is     4.8133 ev

!    total energy              =     -91.15733222 Ry
     Harris-Foulkes estimate   =     -91.15733222 Ry
     estimated scf accuracy    <          2.5E-09 Ry

     The total energy is the sum of the following terms:

     one-electron contribution =     -46.62386794 Ry
     hartree contribution      =      37.25920017 Ry
     xc contribution           =     -27.96219503 Ry
     ewald contribution        =     -53.83098924 Ry
     smearing contrib. (-TS)   =       0.00051981 Ry

     convergence has been achieved in   6 iterations

     Forces acting on atoms (cartesian axes, Ry/au):

     atom    1 type  1   force =    -0.02374645    0.01861954   -0.00005048
     atom    2 type  1   force =     0.02344658   -0.01845479   -0.00011088
     atom    3 type  1   force =    -0.02390121    0.01864307    0.00053973
     atom    4 type  1   force =     0.02437367   -0.01899120   -0.00045468
     atom    5 type  1   force =     0.02392738   -0.01872296   -0.00002339
     atom    6 type  1   force =    -0.02424994    0.01902382    0.00076567
     atom    7 type  1   force =    -0.02389528    0.01873768   -0.00019428
     atom    8 type  1   force =     0.02404526   -0.01885517   -0.00047168

     Total force =     0.086050     Total SCF correction =     0.000063


     Computing stress (Cartesian axis) and pressure

          total   stress  (Ry/bohr**3)                   (kbar)     P=        0.05
   0.00014410  -0.00011791   0.00000116           21.20      -17.34        0.17
  -0.00011791   0.00007794  -0.00000137          -17.34       11.47       -0.20
   0.00000116  -0.00000137  -0.00022104            0.17       -0.20      -32.52


     number of scf cycles    =   2
     number of bfgs steps    =   1

     enthalpy old            =     -91.1581879393 Ry
     enthalpy new            =     -91.1572947610 Ry

     CASE: enthalpy_new > enthalpy_old

     new trust radius        =       0.0100074467 bohr
     new conv_thr            =       0.0000000100 Ry

     new unit-cell volume =    550.88949 a.u.^3 (    81.63340 Ang^3 )
     density =      1.95278 g/cm^3

CELL_PARAMETERS (bohr)
  12.687895169  -0.665798385   0.014903456
   0.005445157   9.301287125   0.014338709
   0.004255617   0.005653395   4.667881445

ATOMIC_POSITIONS (crystal)
C             0.1363810917        0.4288294479        0.0149045277
C             0.3027581463        0.2628571239        0.0145536479
C             0.3865222192        0.1790841552       -0.4854318606
C             1.0525900067        0.5125291565        0.5148934897
C             0.8025793768        0.7625410807        1.0143788686
C             0.8862967425        0.6786990702        1.5143710691
C             0.6364277096        0.9289073164        0.0149935620
C             0.5527417073        0.0127866492        0.5150266955



     Writing output data file ./pp.save/
     NEW-OLD atomic charge density approx. for the potential
     extrapolated charge   31.99350, renormalised to   32.00000

     total cpu time spent up to now is       15.7 secs

     Self-consistent Calculation

     iteration #  1     ecut=    40.00 Ry     beta= 0.50
     Davidson diagonalization with overlap
     ethr =  1.00E-06,  avg # of iterations =  4.8

     total cpu time spent up to now is       17.5 secs

     total energy              =     -91.15898478 Ry
     Harris-Foulkes estimate   =     -91.16694079 Ry
     estimated scf accuracy    <       0.00042363 Ry

     iteration #  2     ecut=    40.00 Ry     beta= 0.50
     Davidson diagonalization with overlap
     ethr =  1.32E-06,  avg # of iterations =  1.3

     total cpu time spent up to now is       18.2 secs

     total energy              =     -91.15898655 Ry
     Harris-Foulkes estimate   =     -91.15901384 Ry
     estimated scf accuracy    <       0.00005024 Ry

     iteration #  3     ecut=    40.00 Ry     beta= 0.50
     Davidson diagonalization with overlap
     ethr =  1.57E-07,  avg # of iterations =  2.0

     total cpu time spent up to now is       19.1 secs

     total energy              =     -91.15899679 Ry
     Harris-Foulkes estimate   =     -91.15899689 Ry
     estimated scf accuracy    <       0.00000095 Ry

     iteration #  4     ecut=    40.00 Ry     beta= 0.50
     Davidson diagonalization with overlap
     ethr =  2.96E-09,  avg # of iterations =  2.2

     total cpu time spent up to now is       20.1 secs

     total energy              =     -91.15899702 Ry
     Harris-Foulkes estimate   =     -91.15899699 Ry
     estimated scf accuracy    <       0.00000022 Ry

     iteration #  5     ecut=    40.00 Ry     beta= 0.50
     Davidson diagonalization with overlap
     ethr =  6.94E-10,  avg # of iterations =  1.1

     total cpu time spent up to now is       20.7 secs

     End of self-consistent calculation

          k = 0.0000 0.0000 0.0000 (  2359 PWs)   bands (ev):

   -14.0385 -12.5033 -12.5022  -8.7189  -7.7380  -1.9339  -1.9328  -1.6275
    -0.9105  -0.6113  -0.6104   0.4809   0.4822   2.4346   2.5244   3.1366
     7.0708   8.9334  12.7564  12.8003

          k =-0.0007-0.0008 0.5451 (  2369 PWs)   bands (ev):

   -13.3323 -11.8146 -11.8135  -8.1127  -7.1920  -3.3364  -2.6638  -2.6625
    -1.0707  -1.0697  -0.8087   0.1940   0.1982   0.2495   1.0151   3.9942
     6.7749   9.8380  11.4577  11.4627

          k =-0.0014-0.0017 1.0901 (  2345 PWs)   bands (ev):

   -11.2552  -9.8122  -9.8108  -8.0804  -6.3659  -6.3645  -6.3080  -4.6628
    -3.3869  -1.9777  -0.9680  -0.9670   1.5196   2.2839   2.2911   4.7005
     6.5051   7.9123   7.9213  10.3911

          k = 0.0239 0.4559-0.0006 (  2364 PWs)   bands (ev):

   -13.8396 -13.3001 -11.4307 -10.0368  -6.1980  -4.1162  -1.8072  -1.6881
    -0.7420  -0.2581   0.1607   1.1515   1.3669   1.7920   2.1743   2.6028
     8.0946  10.3699  10.4281  12.7751

          k = 0.0232 0.4551 0.5445 (  2352 PWs)   bands (ev):

   -13.1367 -12.6035 -10.7550  -9.3901  -5.7684  -4.0417  -3.1120  -2.3886
    -1.5157  -0.9754  -0.8558  -0.4163   0.3352   1.0502   1.9070   3.3737
     7.7109   9.5646  11.2798  13.1274

          k = 0.0226 0.4542 1.0896 (  2347 PWs)   bands (ev):

   -11.0698 -10.5611  -8.8626  -8.1095  -7.0478  -7.0433  -5.3959  -4.2286
    -3.6156  -2.1092  -1.2758  -0.6734   1.3787   1.4671   3.4177   4.2655
     6.8193   7.1816   9.2162  10.1570

          k = 0.0253 0.4576-1.0907 (  2348 PWs)   bands (ev):

   -11.0688 -10.5615  -8.8632  -8.1104  -7.0474  -7.0436  -5.3951  -4.2283
    -3.6159  -2.1088  -1.2756  -0.6737   1.3685   1.4704   3.4208   4.2741
     6.8246   7.1799   9.2089  10.1528

          k = 0.0246 0.4567-0.5456 (  2354 PWs)   bands (ev):

   -13.1361 -12.6037 -10.7554  -9.3903  -5.7685  -4.0415  -3.1127  -2.3882
    -1.5150  -0.9813  -0.8536  -0.4160   0.3350   1.0503   1.9110   3.3758
     7.7146   9.5609  11.3031  13.1218

          k =-0.5013 0.0003 0.0005 (  2372 PWs)   bands (ev):

   -13.6444 -13.6439 -10.7050 -10.7049  -5.2090  -5.2087  -1.4666  -1.4654
    -0.5418  -0.5412   1.0665   1.0667   1.3057   1.3058   1.8088   1.8091
     9.4490   9.4493  10.3041  10.3073

          k =-0.5020-0.0005 0.5455 (  2349 PWs)   bands (ev):

   -12.9425 -12.9417 -10.0455 -10.0454  -4.9096  -4.9092  -2.8356  -2.8349
    -0.9334  -0.9332  -0.6497  -0.6442   0.8086   0.8088   2.0862   2.0867
     8.8908   8.8960  11.1667  11.1872

          k =-0.5027-0.0014 1.0906 (  2350 PWs)   bands (ev):

   -10.8805 -10.8795  -8.3541  -8.3538  -7.2059  -7.2052  -4.7892  -4.7892
    -2.8687  -2.8685  -0.8980  -0.8979   1.6322   1.6413   3.6435   3.6463
     6.9907   6.9978   9.4111   9.4117

          k =-0.4774 0.4562-0.0001 (  2352 PWs)   bands (ev):

   -13.9175 -13.0133 -12.0049  -9.2344  -7.1815  -3.0158  -2.3822  -0.8587
    -0.8367  -0.4525   0.0742   0.2316   0.9165   2.2633   2.4312   2.8897
     7.6196  10.2868  11.5009  12.5298

          k =-0.4781 0.4553 0.5449 (  2351 PWs)   bands (ev):

   -13.2158 -12.3163 -11.3216  -8.6118  -6.6650  -3.3111  -3.2608  -2.0776
    -1.7976  -1.5343  -0.3102   0.0424   0.3383   1.0157   1.0619   3.6965
     7.1808  10.6461  11.1881  12.2686

          k =-0.4788 0.4545 1.0900 (  2356 PWs)   bands (ev):

   -11.1515 -10.2787  -9.3595  -8.0311  -6.7934  -6.5843  -5.9115  -4.3322
    -3.6632  -1.7399  -1.4509  -0.6856   0.8909   2.4245   2.9503   4.1811
     6.6131   7.8954   8.6511  10.3154

          k =-0.4760 0.4579-1.0902 (  2353 PWs)   bands (ev):

   -11.1508 -10.2785  -9.3603  -8.0318  -6.7935  -6.5847  -5.9107  -4.3319
    -3.6627  -1.7401  -1.4508  -0.6856   0.8849   2.4213   2.9582   4.1878
     6.6157   7.9000   8.6400  10.3115

          k =-0.4767 0.4570-0.5452 (  2353 PWs)   bands (ev):

   -13.2155 -12.3162 -11.3220  -8.6122  -6.6649  -3.3111  -3.2611  -2.0771
    -1.7977  -1.5377  -0.3100   0.0428   0.3368   1.0209   1.0615   3.6993
     7.1819  10.6464  11.1925  12.2622

     the Fermi energy is     4.9271 ev

!    total energy              =     -91.15899703 Ry
     Harris-Foulkes estimate   =     -91.15899703 Ry
     estimated scf accuracy    <          5.5E-09 Ry

     The total energy is the sum of the following terms:

     one-electron contribution =     -46.64842975 Ry
     hartree contribution      =      37.27428967 Ry
     xc contribution           =     -27.96311617 Ry
     ewald contribution        =     -53.82214286 Ry
     smearing contrib. (-TS)   =       0.00040208 Ry

     convergence has been achieved in   5 iterations

     Forces acting on atoms (cartesian axes, Ry/au):

     atom    1 type  1   force =    -0.00076775    0.00069551   -0.00033392
     atom    2 type  1   force =     0.00081469   -0.00080583    0.00034736
     atom    3 type  1   force =    -0.00075858    0.00055286    0.00028346
     atom    4 type  1   force =     0.00065867   -0.00045825   -0.00036387
     atom    5 type  1   force =     0.00091536   -0.00068663    0.00052054
     atom    6 type  1   force =    -0.00063780    0.00053338    0.00045191
     atom    7 type  1   force =    -0.00082005    0.00064928   -0.00040854
     atom    8 type  1   force =     0.00059546   -0.00048031   -0.00049693

     Total force =     0.002987     Total SCF correction =     0.000134


     Computing stress (Cartesian axis) and pressure

          total   stress  (Ry/bohr**3)                   (kbar)     P=       -0.30
  -0.00001782   0.00000940  -0.00000007           -2.62        1.38       -0.01
   0.00000940  -0.00002107   0.00000011            1.38       -3.10        0.02
  -0.00000007   0.00000011   0.00003282           -0.01        0.02        4.83


     number of scf cycles    =   3
     number of bfgs steps    =   1

     enthalpy old            =     -91.1581879393 Ry
     enthalpy new            =     -91.1589595801 Ry

     CASE: enthalpy_new < enthalpy_old

     new trust radius        =       0.0039764738 bohr
     new conv_thr            =            1.0E-10 Ry

     new unit-cell volume =    550.79939 a.u.^3 (    81.62005 Ang^3 )
     density =      1.95310 g/cm^3

CELL_PARAMETERS (bohr)
  12.681815629  -0.662280115   0.014889612
   0.007753368   9.296229951   0.014377919
   0.004245954   0.005665043   4.671835593

ATOMIC_POSITIONS (crystal)
C             0.1363255212        0.4288951496        0.0148315124
C             0.3028175347        0.2627796081        0.0146297435
C             0.3864673414        0.1791342761       -0.4853702270
C             1.0526368054        0.5124888801        0.5148142018
C             0.8026466922        0.7624772219        1.0144927130
C             0.8862515849        0.6787476398        1.5144693585
C             0.6363679878        0.9289676451        0.0149043587
C             0.5527835323        0.0127435794        0.5149183391



     Writing output data file ./pp.save/
     NEW-OLD atomic charge density approx. for the potential
     extrapolated charge   31.99477, renormalised to   32.00000

     total cpu time spent up to now is       20.8 secs

     Self-consistent Calculation

     iteration #  1     ecut=    40.00 Ry     beta= 0.50
     Davidson diagonalization with overlap
     ethr =  1.00E-06,  avg # of iterations =  2.0

     Threshold (ethr) on eigenvalues was too large:
     Diagonalizing with lowered threshold

     Davidson diagonalization with overlap
     ethr =  2.44E-09,  avg # of iterations =  3.8

     total cpu time spent up to now is       23.3 secs

     total energy              =     -91.15901264 Ry
     Harris-Foulkes estimate   =     -91.16524148 Ry
     estimated scf accuracy    <       0.00000087 Ry

     iteration #  2     ecut=    40.00 Ry     beta= 0.50
     Davidson diagonalization with overlap
     ethr =  2.70E-09,  avg # of iterations =  2.0

     total cpu time spent up to now is       24.3 secs

     total energy              =     -91.15901341 Ry
     Harris-Foulkes estimate   =     -91.15901353 Ry
     estimated scf accuracy    <       0.00000042 Ry

     iteration #  3     ecut=    40.00 Ry     beta= 0.50
     Davidson diagonalization with overlap
     ethr =  1.30E-09,  avg # of iterations =  1.0

     total cpu time spent up to now is       25.1 secs

     total energy              =     -91.15901340 Ry
     Harris-Foulkes estimate   =     -91.15901344 Ry
     estimated scf accuracy    <       0.00000011 Ry

     iteration #  4     ecut=    40.00 Ry     beta= 0.50
     Davidson diagonalization with overlap
     ethr =  3.59E-10,  avg # of iterations =  2.0

     total cpu time spent up to now is       26.2 secs

     total energy              =     -91.15901342 Ry
     Harris-Foulkes estimate   =     -91.15901342 Ry
     estimated scf accuracy    <       0.00000002 Ry

     iteration #  5     ecut=    40.00 Ry     beta= 0.50
     Davidson diagonalization with overlap
     ethr =  5.70E-11,  avg # of iterations =  2.0

     total cpu time spent up to now is       27.2 secs

     total energy              =     -91.15901342 Ry
     Harris-Foulkes estimate   =     -91.15901342 Ry
     estimated scf accuracy    <          2.4E-09 Ry

     iteration #  6     ecut=    40.00 Ry     beta= 0.50
     Davidson diagonalization with overlap
     ethr =  7.57E-12,  avg # of iterations =  2.0

     total cpu time spent up to now is       28.3 secs

     total energy              =     -91.15901342 Ry
     Harris-Foulkes estimate   =     -91.15901342 Ry
     estimated scf accuracy    <          2.7E-10 Ry

     iteration #  7     ecut=    40.00 Ry     beta= 0.50
     Davidson diagonalization with overlap
     ethr =  8.32E-13,  avg # of iterations =  2.0

     total cpu time spent up to now is       29.6 secs

     End of self-consistent calculation

          k = 0.0000 0.0000 0.0000 (  2359 PWs)   bands (ev):

   -14.0358 -12.4979 -12.4971  -8.7038  -7.7309  -1.9158  -1.9150  -1.6241
    -0.9318  -0.6065  -0.6060   0.4621   0.4629   2.4531   2.5087   3.1455
     7.0809   8.9367  12.7154  12.8103

          k =-0.0007-0.0008 0.5446 (  2369 PWs)   bands (ev):

   -13.3310 -11.8106 -11.8097  -8.0991  -7.1871  -3.3505  -2.6675  -2.6664
    -1.0631  -1.0624  -0.8066   0.1972   0.2014   0.2415   1.0264   4.0017
     6.7797   9.8394  11.4564  11.4613

          k =-0.0014-0.0017 1.0892 (  2345 PWs)   bands (ev):

   -11.2578  -9.8123  -9.8112  -8.0889  -6.3702  -6.3690  -6.2987  -4.6568
    -3.3848  -1.9717  -0.9539  -0.9532   1.5184   2.2831   2.2904   4.6975
     6.5087   7.9076   7.9166  10.3897

          k = 0.0238 0.4561-0.0006 (  2364 PWs)   bands (ev):

   -13.8366 -13.2962 -11.4237 -10.0271  -6.1853  -4.1005  -1.8043  -1.6851
    -0.7630  -0.2783   0.1798   1.1584   1.3492   1.8109   2.1580   2.6111
     8.1055  10.3807  10.4332  12.7750

          k = 0.0231 0.4553 0.5440 (  2352 PWs)   bands (ev):

   -13.1350 -12.6009 -10.7493  -9.3818  -5.7592  -4.0359  -3.1245  -2.3939
    -1.5226  -0.9738  -0.8542  -0.4229   0.3473   1.0611   1.9124   3.3804
     7.7156   9.5668  11.2830  13.1248

          k = 0.0225 0.4544 1.0886 (  2347 PWs)   bands (ev):

   -11.0721 -10.5624  -8.8624  -8.1151  -7.0522  -7.0399  -5.3985  -4.2286
    -3.6060  -2.0964  -1.2672  -0.6611   1.3769   1.4652   3.4171   4.2635
     6.8208   7.1787   9.2133  10.1554

          k = 0.0252 0.4578-1.0898 (  2348 PWs)   bands (ev):

   -11.0711 -10.5628  -8.8629  -8.1161  -7.0519  -7.0402  -5.3978  -4.2284
    -3.6063  -2.0961  -1.2670  -0.6614   1.3668   1.4685   3.4203   4.2720
     6.8261   7.1769   9.2060  10.1512

          k = 0.0245 0.4570-0.5452 (  2354 PWs)   bands (ev):

   -13.1344 -12.6011 -10.7497  -9.3820  -5.7593  -4.0358  -3.1252  -2.3934
    -1.5220  -0.9797  -0.8520  -0.4226   0.3471   1.0612   1.9164   3.3825
     7.7194   9.5630  11.3064  13.1191

          k =-0.5015 0.0004 0.0005 (  2372 PWs)   bands (ev):

   -13.6410 -13.6407 -10.6966 -10.6965  -5.1946  -5.1945  -1.4631  -1.4617
    -0.5623  -0.5621   1.0857   1.0859   1.3125   1.3126   1.7919   1.7921
     9.4598   9.4601  10.3085  10.3117

          k =-0.5022-0.0004 0.5451 (  2349 PWs)   bands (ev):

   -12.9404 -12.9398 -10.0385 -10.0383  -4.9010  -4.9006  -2.8455  -2.8450
    -0.9401  -0.9399  -0.6475  -0.6419   0.8204   0.8206   2.0914   2.0919
     8.8945   8.8997  11.1693  11.1898

          k =-0.5029-0.0013 1.0897 (  2350 PWs)   bands (ev):

   -10.8824 -10.8815  -8.3555  -8.3554  -7.2078  -7.2071  -4.7906  -4.7904
    -2.8574  -2.8573  -0.8875  -0.8874   1.6310   1.6401   3.6429   3.6458
     6.9889   6.9959   9.4078   9.4083

          k =-0.4777 0.4566-0.0001 (  2352 PWs)   bands (ev):

   -13.9146 -13.0089 -11.9988  -9.2226  -7.1711  -2.9988  -2.3801  -0.8800
    -0.8180  -0.4477   0.0544   0.2369   0.8981   2.2819   2.4153   2.8988
     7.6302  10.2923  11.5116  12.5356

          k =-0.4784 0.4557 0.5445 (  2351 PWs)   bands (ev):

   -13.2142 -12.3133 -11.3168  -8.6014  -6.6571  -3.3109  -3.2745  -2.0838
    -1.7957  -1.5335  -0.2993   0.0354   0.3417   1.0196   1.0724   3.7040
     7.1848  10.6484  11.1919  12.2676

          k =-0.4791 0.4549 1.0891 (  2356 PWs)   bands (ev):

   -11.1538 -10.2797  -9.3593  -8.0390  -6.7982  -6.5768  -5.9152  -4.3247
    -3.6619  -1.7331  -1.4372  -0.6721   0.8883   2.4242   2.9502   4.1770
     6.6161   7.8924   8.6473  10.3142

          k =-0.4764 0.4582-1.0893 (  2353 PWs)   bands (ev):

   -11.1532 -10.2795  -9.3602  -8.0397  -6.7983  -6.5772  -5.9143  -4.3244
    -3.6614  -1.7333  -1.4371  -0.6721   0.8822   2.4211   2.9579   4.1838
     6.6187   7.8970   8.6362  10.3103

          k =-0.4770 0.4574-0.5447 (  2353 PWs)   bands (ev):

   -13.2139 -12.3132 -11.3173  -8.6017  -6.6571  -3.3108  -3.2748  -2.0834
    -1.7959  -1.5369  -0.2990   0.0358   0.3402   1.0248   1.0720   3.7068
     7.1859  10.6488  11.1963  12.2611

     the Fermi energy is     4.9239 ev

!    total energy              =     -91.15901342 Ry
     Harris-Foulkes estimate   =     -91.15901342 Ry
     estimated scf accuracy    <          2.1E-11 Ry

     The total energy is the sum of the following terms:

     one-electron contribution =     -46.59197647 Ry
     hartree contribution      =      37.24799547 Ry
     xc contribution           =     -27.96221558 Ry
     ewald contribution        =     -53.85322004 Ry
     smearing contrib. (-TS)   =       0.00040321 Ry

     convergence has been achieved in   7 iterations

     Forces acting on atoms (cartesian axes, Ry/au):

     atom    1 type  1   force =     0.00025307   -0.00014487   -0.00023945
     atom    2 type  1   force =    -0.00034714    0.00016296    0.00016608
     atom    3 type  1   force =     0.00010029   -0.00015079    0.00020855
     atom    4 type  1   force =    -0.00001274    0.00007907   -0.00019391
     atom    5 type  1   force =    -0.00023514    0.00021439    0.00028054
     atom    6 type  1   force =     0.00012935   -0.00006408    0.00037200
     atom    7 type  1   force =     0.00021292   -0.00016372   -0.00031399
     atom    8 type  1   force =    -0.00010063    0.00006704   -0.00027982

     Total force =     0.001020     Total SCF correction =     0.000006


     Computing stress (Cartesian axis) and pressure

          total   stress  (Ry/bohr**3)                   (kbar)     P=       -0.68
   0.00000259  -0.00000639   0.00000003            0.38       -0.94        0.01
  -0.00000639  -0.00000844  -0.00000005           -0.94       -1.24       -0.01
   0.00000003  -0.00000005  -0.00000798            0.01       -0.01       -1.17


     number of scf cycles    =   4
     number of bfgs steps    =   2

     enthalpy old            =     -91.1589595801 Ry
     enthalpy new            =     -91.1589759771 Ry

     CASE: enthalpy_new < enthalpy_old

     new trust radius        =       0.0012343017 bohr
     new conv_thr            =            1.0E-10 Ry

     new unit-cell volume =    550.62000 a.u.^3 (    81.59346 Ang^3 )
     density =      1.95373 g/cm^3

CELL_PARAMETERS (bohr)
  12.682191658  -0.663717900   0.014896565
   0.006582709   9.294080492   0.014366933
   0.004248295   0.005658577   4.671285941

ATOMIC_POSITIONS (crystal)
C             0.1363379979        0.4288886893        0.0147797595
C             0.3027987277        0.2627864268        0.0146675912
C             0.3864690933        0.1791251999       -0.4853252339
C             1.0526406042        0.5124922625        0.5147706889
C             0.8026363879        0.7624905810        1.0145554725
C             0.8862561074        0.6787469228        1.5145486492
C             0.6363773204        0.9289587686        0.0148370012
C             0.5527807611        0.0127451490        0.5148560715



     Writing output data file ./pp.save/
     NEW-OLD atomic charge density approx. for the potential
     extrapolated charge   31.98957, renormalised to   32.00000

     total cpu time spent up to now is       29.6 secs

     Self-consistent Calculation

     iteration #  1     ecut=    40.00 Ry     beta= 0.50
     Davidson diagonalization with overlap
     ethr =  1.00E-06,  avg # of iterations =  2.0

     Threshold (ethr) on eigenvalues was too large:
     Diagonalizing with lowered threshold

     Davidson diagonalization with overlap
     ethr =  4.76E-09,  avg # of iterations =  2.2

     total cpu time spent up to now is       32.0 secs

     total energy              =     -91.15901324 Ry
     Harris-Foulkes estimate   =     -91.17140814 Ry
     estimated scf accuracy    <       0.00000156 Ry

     iteration #  2     ecut=    40.00 Ry     beta= 0.50
     Davidson diagonalization with overlap
     ethr =  4.88E-09,  avg # of iterations =  3.0

     total cpu time spent up to now is       33.8 secs

     total energy              =     -91.15901645 Ry
     Harris-Foulkes estimate   =     -91.15901678 Ry
     estimated scf accuracy    <       0.00000101 Ry

     iteration #  3     ecut=    40.00 Ry     beta= 0.50
     Davidson diagonalization with overlap
     ethr =  3.14E-09,  avg # of iterations =  1.0

     total cpu time spent up to now is       34.7 secs

     total energy              =     -91.15901625 Ry
     Harris-Foulkes estimate   =     -91.15901648 Ry
     estimated scf accuracy    <       0.00000035 Ry

     iteration #  4     ecut=    40.00 Ry     beta= 0.50
     Davidson diagonalization with overlap
     ethr =  1.10E-09,  avg # of iterations =  2.0

     total cpu time spent up to now is       36.2 secs

     total energy              =     -91.15901633 Ry
     Harris-Foulkes estimate   =     -91.15901634 Ry
     estimated scf accuracy    <       0.00000002 Ry

     iteration #  5     ecut=    40.00 Ry     beta= 0.50
     Davidson diagonalization with overlap
     ethr =  6.35E-11,  avg # of iterations =  1.1

     total cpu time spent up to now is       37.2 secs

     total energy              =     -91.15901633 Ry
     Harris-Foulkes estimate   =     -91.15901633 Ry
     estimated scf accuracy    <          8.1E-09 Ry

     iteration #  6     ecut=    40.00 Ry     beta= 0.50
     Davidson diagonalization with overlap
     ethr =  2.55E-11,  avg # of iterations =  1.0

     total cpu time spent up to now is       38.3 secs

     total energy              =     -91.15901633 Ry
     Harris-Foulkes estimate   =     -91.15901633 Ry
     estimated scf accuracy    <          3.3E-09 Ry

     iteration #  7     ecut=    40.00 Ry     beta= 0.50
     Davidson diagonalization with overlap
     ethr =  1.04E-11,  avg # of iterations =  2.0

     total cpu time spent up to now is       39.8 secs

     End of self-consistent calculation

          k = 0.0000 0.0000 0.0000 (  2359 PWs)   bands (ev):

   -14.0335 -12.4954 -12.4952  -8.7022  -7.7289  -1.9143  -1.9141  -1.6209
    -0.9264  -0.6042  -0.6040   0.4678   0.4680   2.4543   2.5140   3.1474
     7.0825   8.9406  12.7238  12.8132

          k =-0.0007-0.0008 0.5447 (  2369 PWs)   bands (ev):

   -13.3285 -11.8079 -11.8075  -8.0973  -7.1848  -3.3459  -2.6636  -2.6631
    -1.0605  -1.0603  -0.8032   0.1996   0.2037   0.2459   1.0282   4.0038
     6.7821   9.8435  11.4604  11.4653

          k =-0.0014-0.0017 1.0893 (  2345 PWs)   bands (ev):

   -11.2548  -9.8092  -9.8084  -8.0851  -6.3665  -6.3656  -6.2964  -4.6547
    -3.3817  -1.9694  -0.9520  -0.9519   1.5222   2.2861   2.2933   4.7013
     6.5115   7.9114   7.9205  10.3933

          k = 0.0239 0.4562-0.0006 (  2364 PWs)   bands (ev):

   -13.8343 -13.2938 -11.4217 -10.0252  -6.1836  -4.0991  -1.8017  -1.6833
    -0.7576  -0.2729   0.1809   1.1614   1.3545   1.8121   2.1633   2.6137
     8.1073  10.3834  10.4384  12.7787

          k = 0.0232 0.4554 0.5441 (  2352 PWs)   bands (ev):

   -13.1325 -12.5983 -10.7471  -9.3798  -5.7571  -4.0334  -3.1201  -2.3902
    -1.5186  -0.9711  -0.8521  -0.4189   0.3492   1.0632   1.9155   3.3832
     7.7182   9.5701  11.2884  13.1294

          k = 0.0225 0.4546 1.0888 (  2347 PWs)   bands (ev):

   -11.0690 -10.5593  -8.8594  -8.1116  -7.0487  -7.0373  -5.3952  -4.2255
    -3.6041  -2.0947  -1.2650  -0.6594   1.3801   1.4679   3.4205   4.2670
     6.8242   7.1824   9.2177  10.1595

          k = 0.0252 0.4579-1.0899 (  2348 PWs)   bands (ev):

   -11.0680 -10.5597  -8.8600  -8.1125  -7.0484  -7.0377  -5.3945  -4.2252
    -3.6043  -2.0944  -1.2649  -0.6596   1.3700   1.4712   3.4236   4.2756
     6.8294   7.1807   9.2103  10.1553

          k = 0.0246 0.4571-0.5452 (  2354 PWs)   bands (ev):

   -13.1319 -12.5985 -10.7475  -9.3800  -5.7573  -4.0332  -3.1208  -2.3898
    -1.5180  -0.9770  -0.8500  -0.4186   0.3491   1.0632   1.9195   3.3854
     7.7220   9.5664  11.3117  13.1237

          k =-0.5015 0.0004 0.0005 (  2372 PWs)   bands (ev):

   -13.6387 -13.6384 -10.6946 -10.6945  -5.1931  -5.1931  -1.4603  -1.4588
    -0.5569  -0.5567   1.0868   1.0870   1.3142   1.3143   1.7972   1.7974
     9.4622   9.4626  10.3127  10.3159

          k =-0.5022-0.0005 0.5451 (  2349 PWs)   bands (ev):

   -12.9379 -12.9373 -10.0362 -10.0361  -4.8988  -4.8985  -2.8414  -2.8409
    -0.9361  -0.9359  -0.6445  -0.6389   0.8224   0.8225   2.0934   2.0939
     8.8977   8.9031  11.1736  11.1941

          k =-0.5029-0.0013 1.0898 (  2350 PWs)   bands (ev):

   -10.8794 -10.8785  -8.3523  -8.3521  -7.2046  -7.2040  -4.7872  -4.7871
    -2.8556  -2.8555  -0.8855  -0.8854   1.6344   1.6436   3.6459   3.6488
     6.9926   6.9997   9.4115   9.4120

          k =-0.4777 0.4566-0.0001 (  2352 PWs)   bands (ev):

   -13.9122 -13.0068 -11.9967  -9.2208  -7.1695  -2.9975  -2.3780  -0.8745
    -0.8168  -0.4446   0.0598   0.2390   0.9034   2.2831   2.4206   2.9013
     7.6330  10.2962  11.5139  12.5420

          k =-0.4783 0.4558 0.5445 (  2351 PWs)   bands (ev):

   -13.2116 -12.3110 -11.3144  -8.5995  -6.6551  -3.3077  -3.2699  -2.0800
    -1.7928  -1.5312  -0.2972   0.0396   0.3449   1.0219   1.0744   3.7067
     7.1880  10.6518  11.1959  12.2714

          k =-0.4790 0.4549 1.0892 (  2356 PWs)   bands (ev):

   -11.1507 -10.2768  -9.3564  -8.0351  -6.7947  -6.5745  -5.9117  -4.3227
    -3.6588  -1.7309  -1.4356  -0.6704   0.8911   2.4278   2.9531   4.1804
     6.6195   7.8965   8.6511  10.3183

          k =-0.4763 0.4583-1.0895 (  2353 PWs)   bands (ev):

   -11.1500 -10.2766  -9.3572  -8.0358  -6.7949  -6.5749  -5.9109  -4.3225
    -3.6583  -1.7311  -1.4355  -0.6704   0.8850   2.4247   2.9610   4.1871
     6.6222   7.9010   8.6401  10.3144

          k =-0.4770 0.4574-0.5448 (  2353 PWs)   bands (ev):

   -13.2112 -12.3108 -11.3149  -8.5998  -6.6550  -3.3077  -3.2702  -2.0794
    -1.7929  -1.5347  -0.2970   0.0399   0.3434   1.0271   1.0740   3.7095
     7.1891  10.6522  11.2003  12.2650

     the Fermi energy is     4.9279 ev

!    total energy              =     -91.15901633 Ry
     Harris-Foulkes estimate   =     -91.15901633 Ry
     estimated scf accuracy    <          8.6E-12 Ry

     The total energy is the sum of the following terms:

     one-electron contribution =     -46.54833215 Ry
     hartree contribution      =      37.22990700 Ry
     xc contribution           =     -27.96283356 Ry
     ewald contribution        =     -53.87815975 Ry
     smearing contrib. (-TS)   =       0.00040213 Ry

     convergence has been achieved in   7 iterations

     Forces acting on atoms (cartesian axes, Ry/au):

     atom    1 type  1   force =     0.00004065    0.00000464   -0.00013616
     atom    2 type  1   force =    -0.00003649   -0.00005524    0.00012783
     atom    3 type  1   force =    -0.00000409   -0.00007723    0.00008989
     atom    4 type  1   force =    -0.00004809    0.00010583   -0.00012459
     atom    5 type  1   force =    -0.00001273    0.00003948    0.00023979
     atom    6 type  1   force =     0.00010627   -0.00004048    0.00019808
     atom    7 type  1   force =     0.00002641   -0.00001689   -0.00018369
     atom    8 type  1   force =    -0.00007195    0.00003989   -0.00021115

     Total force =     0.000531     Total SCF correction =     0.000001


     Computing stress (Cartesian axis) and pressure

          total   stress  (Ry/bohr**3)                   (kbar)     P=       -0.43
   0.00000185  -0.00000573  -0.00000005            0.27       -0.84       -0.01
  -0.00000573  -0.00000888   0.00000002           -0.84       -1.31        0.00
  -0.00000005   0.00000002  -0.00000180           -0.01        0.00       -0.27


     number of scf cycles    =   5
     number of bfgs steps    =   3

     enthalpy old            =     -91.1589759771 Ry
     enthalpy new            =     -91.1589788990 Ry

     CASE: enthalpy_new < enthalpy_old

     new trust radius        =       0.0013578892 bohr
     new conv_thr            =            1.0E-10 Ry

     new unit-cell volume =    550.46548 a.u.^3 (    81.57057 Ang^3 )
     density =      1.95428 g/cm^3

CELL_PARAMETERS (bohr)
  12.682497739  -0.665195950   0.014888712
   0.005368774   9.291677535   0.014366785
   0.004245011   0.005656782   4.671101602

ATOMIC_POSITIONS (crystal)
C             0.1363431422        0.4288889025        0.0147372735
C             0.3027914121        0.2627824269        0.0147035027
C             0.3864677132        0.1791179498       -0.4852922835
C             1.0526412669        0.5124994055        0.5147328449
C             0.8026340007        0.7624963153        1.0146182523
C             0.8862617569        0.6787458554        1.5146116679
C             0.6363803188        0.9289562680        0.0147810834
C             0.5527773891        0.0127468766        0.5147976588



     Writing output data file ./pp.save/
     NEW-OLD atomic charge density approx. for the potential
     extrapolated charge   31.99102, renormalised to   32.00000

     total cpu time spent up to now is       39.9 secs

     Self-consistent Calculation

     iteration #  1     ecut=    40.00 Ry     beta= 0.50
     Davidson diagonalization with overlap
     ethr =  1.00E-06,  avg # of iterations =  2.0

     Threshold (ethr) on eigenvalues was too large:
     Diagonalizing with lowered threshold

     Davidson diagonalization with overlap
     ethr =  3.07E-09,  avg # of iterations =  2.6

     total cpu time spent up to now is       43.1 secs

     total energy              =     -91.15901649 Ry
     Harris-Foulkes estimate   =     -91.16968305 Ry
     estimated scf accuracy    <       0.00000101 Ry

     iteration #  2     ecut=    40.00 Ry     beta= 0.50
     Davidson diagonalization with overlap
     ethr =  3.17E-09,  avg # of iterations =  3.0

     total cpu time spent up to now is       45.1 secs

     total energy              =     -91.15901880 Ry
     Harris-Foulkes estimate   =     -91.15901905 Ry
     estimated scf accuracy    <       0.00000078 Ry

     iteration #  3     ecut=    40.00 Ry     beta= 0.50
     Davidson diagonalization with overlap
     ethr =  2.45E-09,  avg # of iterations =  1.0

     total cpu time spent up to now is       46.3 secs

     total energy              =     -91.15901863 Ry
     Harris-Foulkes estimate   =     -91.15901882 Ry
     estimated scf accuracy    <       0.00000029 Ry

     iteration #  4     ecut=    40.00 Ry     beta= 0.50
     Davidson diagonalization with overlap
     ethr =  9.07E-10,  avg # of iterations =  2.0

     total cpu time spent up to now is       48.1 secs

     total energy              =     -91.15901870 Ry
     Harris-Foulkes estimate   =     -91.15901870 Ry
     estimated scf accuracy    <       0.00000002 Ry

     iteration #  5     ecut=    40.00 Ry     beta= 0.50
     Davidson diagonalization with overlap
     ethr =  6.88E-11,  avg # of iterations =  1.0

     total cpu time spent up to now is       49.4 secs

     total energy              =     -91.15901870 Ry
     Harris-Foulkes estimate   =     -91.15901870 Ry
     estimated scf accuracy    <          5.9E-09 Ry

     iteration #  6     ecut=    40.00 Ry     beta= 0.50
     Davidson diagonalization with overlap
     ethr =  1.84E-11,  avg # of iterations =  1.0

     total cpu time spent up to now is       50.7 secs

     total energy              =     -91.15901869 Ry
     Harris-Foulkes estimate   =     -91.15901870 Ry
     estimated scf accuracy    <          2.4E-09 Ry

     iteration #  7     ecut=    40.00 Ry     beta= 0.50
     Davidson diagonalization with overlap
     ethr =  7.35E-12,  avg # of iterations =  2.0

     total cpu time spent up to now is       52.7 secs

     End of self-consistent calculation

          k = 0.0000 0.0000 0.0000 (  2359 PWs)   bands (ev):

   -14.0309 -12.4928 -12.4925  -8.7000  -7.7264  -1.9125  -1.9122  -1.6173
    -0.9225  -0.6018  -0.6016   0.4715   0.4719   2.4561   2.5177   3.1493
     7.0842   8.9445  12.7285  12.8160

          k =-0.0007-0.0008 0.5447 (  2369 PWs)   bands (ev):

   -13.3258 -11.8052 -11.8047  -8.0950  -7.1822  -3.3424  -2.6606  -2.6600
    -1.0581  -1.0578  -0.7997   0.2020   0.2062   0.2492   1.0305   4.0058
     6.7844   9.8475  11.4633  11.4682

          k =-0.0014-0.0017 1.0894 (  2345 PWs)   bands (ev):

   -11.2519  -9.8063  -9.8055  -8.0819  -6.3634  -6.3625  -6.2939  -4.6521
    -3.3788  -1.9669  -0.9500  -0.9497   1.5258   2.2887   2.2959   4.7047
     6.5137   7.9143   7.9234  10.3958

          k = 0.0239 0.4564-0.0006 (  2364 PWs)   bands (ev):

   -13.8316 -13.2910 -11.4192 -10.0229  -6.1814  -4.0971  -1.7990  -1.6813
    -0.7536  -0.2690   0.1828   1.1646   1.3583   1.8139   2.1670   2.6165
     8.1092  10.3859  10.4437  12.7820

          k = 0.0233 0.4555 0.5441 (  2352 PWs)   bands (ev):

   -13.1297 -12.5954 -10.7446  -9.3774  -5.7547  -4.0309  -3.1166  -2.3870
    -1.5155  -0.9682  -0.8501  -0.4157   0.3515   1.0654   1.9188   3.3861
     7.7205   9.5727  11.2937  13.1326

          k = 0.0226 0.4547 1.0888 (  2347 PWs)   bands (ev):

   -11.0660 -10.5563  -8.8567  -8.1084  -7.0456  -7.0346  -5.3922  -4.2226
    -3.6016  -2.0925  -1.2626  -0.6571   1.3831   1.4702   3.4236   4.2701
     6.8269   7.1853   9.2210  10.1625

          k = 0.0253 0.4580-1.0900 (  2348 PWs)   bands (ev):

   -11.0650 -10.5567  -8.8572  -8.1094  -7.0452  -7.0349  -5.3915  -4.2224
    -3.6019  -2.0922  -1.2624  -0.6574   1.3730   1.4735   3.4267   4.2787
     6.8322   7.1836   9.2137  10.1583

          k = 0.0246 0.4572-0.5453 (  2354 PWs)   bands (ev):

   -13.1291 -12.5957 -10.7450  -9.3776  -5.7548  -4.0307  -3.1173  -2.3866
    -1.5149  -0.9741  -0.8479  -0.4154   0.3513   1.0656   1.9227   3.3882
     7.7242   9.5690  11.3170  13.1270

          k =-0.5015 0.0003 0.0005 (  2372 PWs)   bands (ev):

   -13.6360 -13.6358 -10.6920 -10.6919  -5.1910  -5.1910  -1.4572  -1.4557
    -0.5529  -0.5529   1.0887   1.0888   1.3161   1.3162   1.8010   1.8011
     9.4646   9.4648  10.3169  10.3200

          k =-0.5022-0.0006 0.5451 (  2349 PWs)   bands (ev):

   -12.9352 -12.9346 -10.0336 -10.0335  -4.8965  -4.8961  -2.8380  -2.8376
    -0.9328  -0.9327  -0.6413  -0.6357   0.8246   0.8248   2.0953   2.0958
     8.9005   8.9058  11.1778  11.1983

          k =-0.5029-0.0014 1.0898 (  2350 PWs)   bands (ev):

   -10.8765 -10.8756  -8.3493  -8.3492  -7.2016  -7.2010  -4.7842  -4.7841
    -2.8533  -2.8532  -0.8832  -0.8831   1.6377   1.6468   3.6485   3.6513
     6.9955   7.0026   9.4140   9.4146

          k =-0.4776 0.4567-0.0001 (  2352 PWs)   bands (ev):

   -13.9093 -13.0042 -11.9941  -9.2185  -7.1672  -2.9955  -2.3758  -0.8705
    -0.8149  -0.4413   0.0636   0.2413   0.9072   2.2849   2.4243   2.9038
     7.6358  10.3001  11.5157  12.5485

          k =-0.4783 0.4558 0.5446 (  2351 PWs)   bands (ev):

   -13.2087 -12.3083 -11.3118  -8.5971  -6.6527  -3.3049  -3.2664  -2.0768
    -1.7900  -1.5290  -0.2949   0.0428   0.3483   1.0243   1.0766   3.7093
     7.1909  10.6544  11.1998  12.2740

          k =-0.4790 0.4550 1.0893 (  2356 PWs)   bands (ev):

   -11.1476 -10.2740  -9.3535  -8.0318  -6.7917  -6.5720  -5.9087  -4.3203
    -3.6560  -1.7284  -1.4334  -0.6682   0.8935   2.4312   2.9558   4.1830
     6.6225   7.8997   8.6540  10.3213

          k =-0.4762 0.4583-1.0895 (  2353 PWs)   bands (ev):

   -11.1470 -10.2737  -9.3543  -8.0325  -6.7918  -6.5724  -5.9078  -4.3200
    -3.6555  -1.7286  -1.4333  -0.6682   0.8875   2.4281   2.9637   4.1898
     6.6251   7.9043   8.6429  10.3174

          k =-0.4769 0.4575-0.5448 (  2353 PWs)   bands (ev):

   -13.2083 -12.3082 -11.3123  -8.5975  -6.6526  -3.3049  -3.2667  -2.0763
    -1.7901  -1.5324  -0.2947   0.0432   0.3468   1.0295   1.0763   3.7121
     7.1920  10.6548  11.2043  12.2676

     the Fermi energy is     4.9314 ev

!    total energy              =     -91.15901870 Ry
     Harris-Foulkes estimate   =     -91.15901870 Ry
     estimated scf accuracy    <          1.1E-11 Ry

     The total energy is the sum of the following terms:

     one-electron contribution =     -46.49647945 Ry
     hartree contribution      =      37.20721220 Ry
     xc contribution           =     -27.96286242 Ry
     ewald contribution        =     -53.90729008 Ry
     smearing contrib. (-TS)   =       0.00040106 Ry

     convergence has been achieved in   7 iterations

     Forces acting on atoms (cartesian axes, Ry/au):

     atom    1 type  1   force =    -0.00002025    0.00003942   -0.00005523
     atom    2 type  1   force =     0.00002535   -0.00008403    0.00005418
     atom    3 type  1   force =    -0.00003645   -0.00005555    0.00002916
     atom    4 type  1   force =    -0.00000292    0.00006723   -0.00006128
     atom    5 type  1   force =     0.00006090   -0.00001733    0.00013880
     atom    6 type  1   force =     0.00003889    0.00001721    0.00011330
     atom    7 type  1   force =    -0.00002858    0.00002561   -0.00009247
     atom    8 type  1   force =    -0.00003695    0.00000744   -0.00012645

     Total force =     0.000308     Total SCF correction =     0.000002


     Computing stress (Cartesian axis) and pressure

          total   stress  (Ry/bohr**3)                   (kbar)     P=       -0.44
   0.00000075  -0.00000482  -0.00000002            0.11       -0.71       -0.00
  -0.00000482  -0.00000958  -0.00000000           -0.71       -1.41       -0.00
  -0.00000002  -0.00000000  -0.00000004           -0.00       -0.00       -0.01


     number of scf cycles    =   6
     number of bfgs steps    =   4

     enthalpy old            =     -91.1589788990 Ry
     enthalpy new            =     -91.1589812751 Ry

     CASE: enthalpy_new < enthalpy_old

     new trust radius        =       0.0020371742 bohr
     new conv_thr            =            1.0E-10 Ry

     new unit-cell volume =    550.22673 a.u.^3 (    81.53519 Ang^3 )
     density =      1.95513 g/cm^3

CELL_PARAMETERS (bohr)
  12.682624020  -0.667114455   0.014891492
   0.003761590   9.287973475   0.014359364
   0.004245085   0.005650388   4.670933164

ATOMIC_POSITIONS (crystal)
C             0.1363485736        0.4288900887        0.0146903991
C             0.3027818290        0.2627772464        0.0147404755
C             0.3864647641        0.1791077918       -0.4852544626
C             1.0526456671        0.5125062142        0.5146898098
C             0.8026335562        0.7625018600        1.0146887010
C             0.8862654512        0.6787494327        1.5146899231
C             0.6363828269        0.9289543914        0.0147159784
C             0.5527743318        0.0127469748        0.5147291757



     Writing output data file ./pp.save/
     NEW-OLD atomic charge density approx. for the potential
     extrapolated charge   31.98611, renormalised to   32.00000

     total cpu time spent up to now is       52.8 secs

     Self-consistent Calculation

     iteration #  1     ecut=    40.00 Ry     beta= 0.50
     Davidson diagonalization with overlap
     ethr =  1.00E-06,  avg # of iterations =  2.0

     Threshold (ethr) on eigenvalues was too large:
     Diagonalizing with lowered threshold

     Davidson diagonalization with overlap
     ethr =  7.55E-09,  avg # of iterations =  2.1

     total cpu time spent up to now is       56.4 secs

     total energy              =     -91.15901647 Ry
     Harris-Foulkes estimate   =     -91.17547755 Ry
     estimated scf accuracy    <       0.00000246 Ry

     iteration #  2     ecut=    40.00 Ry     beta= 0.50
     Davidson diagonalization with overlap
     ethr =  7.67E-09,  avg # of iterations =  3.0

     total cpu time spent up to now is       58.9 secs

     total energy              =     -91.15902200 Ry
     Harris-Foulkes estimate   =     -91.15902260 Ry
     estimated scf accuracy    <       0.00000184 Ry

     iteration #  3     ecut=    40.00 Ry     beta= 0.50
     Davidson diagonalization with overlap
     ethr =  5.75E-09,  avg # of iterations =  1.0

     total cpu time spent up to now is       60.3 secs

     total energy              =     -91.15902161 Ry
     Harris-Foulkes estimate   =     -91.15902206 Ry
     estimated scf accuracy    <       0.00000067 Ry

     iteration #  4     ecut=    40.00 Ry     beta= 0.50
     Davidson diagonalization with overlap
     ethr =  2.11E-09,  avg # of iterations =  2.0

     total cpu time spent up to now is       62.4 secs

     total energy              =     -91.15902177 Ry
     Harris-Foulkes estimate   =     -91.15902179 Ry
     estimated scf accuracy    <       0.00000005 Ry

     iteration #  5     ecut=    40.00 Ry     beta= 0.50
     Davidson diagonalization with overlap
     ethr =  1.53E-10,  avg # of iterations =  1.1

     total cpu time spent up to now is       64.0 secs

     total energy              =     -91.15902177 Ry
     Harris-Foulkes estimate   =     -91.15902177 Ry
     estimated scf accuracy    <       0.00000001 Ry

     iteration #  6     ecut=    40.00 Ry     beta= 0.50
     Davidson diagonalization with overlap
     ethr =  3.64E-11,  avg # of iterations =  1.0

     total cpu time spent up to now is       65.6 secs

     total energy              =     -91.15902176 Ry
     Harris-Foulkes estimate   =     -91.15902177 Ry
     estimated scf accuracy    <          4.4E-09 Ry

     iteration #  7     ecut=    40.00 Ry     beta= 0.50
     Davidson diagonalization with overlap
     ethr =  1.39E-11,  avg # of iterations =  2.0

     total cpu time spent up to now is       67.8 secs

     End of self-consistent calculation

          k = 0.0000 0.0000 0.0000 (  2359 PWs)   bands (ev):

   -14.0270 -12.4888 -12.4883  -8.6962  -7.7224  -1.9090  -1.9085  -1.6121
    -0.9175  -0.5983  -0.5979   0.4764   0.4769   2.4598   2.5226   3.1526
     7.0872   8.9504  12.7341  12.8207

          k =-0.0007-0.0008 0.5447 (  2369 PWs)   bands (ev):

   -13.3219 -11.8012 -11.8006  -8.0911  -7.1781  -3.3378  -2.6562  -2.6556
    -1.0542  -1.0538  -0.7944   0.2057   0.2099   0.2538   1.0344   4.0091
     6.7881   9.8533  11.4678  11.4728

          k =-0.0014-0.0017 1.0894 (  2345 PWs)   bands (ev):

   -11.2478  -9.8021  -9.8012  -8.0775  -6.3590  -6.3581  -6.2899  -4.6481
    -3.3746  -1.9628  -0.9463  -0.9459   1.5310   2.2926   2.2998   4.7096
     6.5172   7.9185   7.9277  10.3998

          k = 0.0240 0.4565-0.0006 (  2364 PWs)   bands (ev):

   -13.8275 -13.2868 -11.4154 -10.0191  -6.1775  -4.0934  -1.7949  -1.6783
    -0.7487  -0.2640   0.1864   1.1696   1.3632   1.8176   2.1719   2.6209
     8.1125  10.3902  10.4518  12.7868

          k = 0.0233 0.4557 0.5441 (  2352 PWs)   bands (ev):

   -13.1257 -12.5912 -10.7407  -9.3736  -5.7507  -4.0268  -3.1119  -2.3825
    -1.5110  -0.9640  -0.8470  -0.4112   0.3553   1.0694   1.9237   3.3905
     7.7242   9.5769  11.3016  13.1377

          k = 0.0226 0.4549 1.0888 (  2347 PWs)   bands (ev):

   -11.0618 -10.5520  -8.8525  -8.1041  -7.0412  -7.0305  -5.3880  -4.2184
    -3.5977  -2.0887  -1.2586  -0.6533   1.3875   1.4736   3.4282   4.2746
     6.8312   7.1895   9.2262  10.1671

          k = 0.0254 0.4582-1.0900 (  2348 PWs)   bands (ev):

   -11.0608 -10.5524  -8.8531  -8.1050  -7.0408  -7.0309  -5.3873  -4.2181
    -3.5980  -2.0884  -1.2585  -0.6535   1.3773   1.4770   3.4312   4.2833
     6.8364   7.1879   9.2188  10.1629

          k = 0.0247 0.4574-0.5453 (  2354 PWs)   bands (ev):

   -13.1251 -12.5915 -10.7411  -9.3738  -5.7508  -4.0266  -3.1127  -2.3822
    -1.5104  -0.9700  -0.8448  -0.4109   0.3552   1.0695   1.9277   3.3927
     7.7280   9.5732  11.3249  13.1320

          k =-0.5015 0.0002 0.0005 (  2372 PWs)   bands (ev):

   -13.6321 -13.6319 -10.6880 -10.6878  -5.1873  -5.1872  -1.4525  -1.4510
    -0.5480  -0.5479   1.0923   1.0925   1.3191   1.3192   1.8059   1.8062
     9.4686   9.4690  10.3233  10.3263

          k =-0.5022-0.0006 0.5452 (  2349 PWs)   bands (ev):

   -12.9312 -12.9306 -10.0295 -10.0293  -4.8925  -4.8922  -2.8335  -2.8330
    -0.9283  -0.9281  -0.6366  -0.6310   0.8285   0.8287   2.0984   2.0990
     8.9049   8.9103  11.1841  11.2045

          k =-0.5029-0.0015 1.0899 (  2350 PWs)   bands (ev):

   -10.8723 -10.8715  -8.3450  -8.3448  -7.1973  -7.1968  -4.7799  -4.7797
    -2.8496  -2.8494  -0.8794  -0.8792   1.6424   1.6516   3.6523   3.6551
     6.9999   7.0071   9.4180   9.4184

          k =-0.4775 0.4568-0.0001 (  2352 PWs)   bands (ev):

   -13.9052 -13.0004 -11.9901  -9.2147  -7.1635  -2.9917  -2.3726  -0.8655
    -0.8112  -0.4362   0.0686   0.2448   0.9122   2.2886   2.4292   2.9081
     7.6406  10.3061  11.5193  12.5582

          k =-0.4782 0.4559 0.5446 (  2351 PWs)   bands (ev):

   -13.2045 -12.3044 -11.3077  -8.5932  -6.6489  -3.3006  -3.2616  -2.0723
    -1.7859  -1.5256  -0.2909   0.0474   0.3534   1.0279   1.0805   3.7136
     7.1955  10.6586  11.2058  12.2782

          k =-0.4789 0.4551 1.0893 (  2356 PWs)   bands (ev):

   -11.1433 -10.2699  -9.3493  -8.0272  -6.7874  -6.5680  -5.9043  -4.3164
    -3.6517  -1.7245  -1.4296  -0.6644   0.8971   2.4362   2.9598   4.1870
     6.6270   7.9046   8.6582  10.3260

          k =-0.4761 0.4584-1.0895 (  2353 PWs)   bands (ev):

   -11.1426 -10.2696  -9.3501  -8.0280  -6.7876  -6.5684  -5.9034  -4.3162
    -3.6512  -1.7247  -1.4294  -0.6644   0.8911   2.4330   2.9678   4.1938
     6.6297   7.9091   8.6471  10.3221

          k =-0.4768 0.4576-0.5448 (  2353 PWs)   bands (ev):

   -13.2041 -12.3043 -11.3082  -8.5936  -6.6488  -3.3006  -3.2619  -2.0717
    -1.7859  -1.5291  -0.2908   0.0477   0.3518   1.0331   1.0802   3.7163
     7.1966  10.6590  11.2102  12.2718

     the Fermi energy is     4.9365 ev

!    total energy              =     -91.15902176 Ry
     Harris-Foulkes estimate   =     -91.15902176 Ry
     estimated scf accuracy    <          9.9E-11 Ry

     The total energy is the sum of the following terms:

     one-electron contribution =     -46.42087131 Ry
     hartree contribution      =      37.17439507 Ry
     xc contribution           =     -27.96306378 Ry
     ewald contribution        =     -53.94988131 Ry
     smearing contrib. (-TS)   =       0.00039956 Ry

     convergence has been achieved in   7 iterations

     Forces acting on atoms (cartesian axes, Ry/au):

     atom    1 type  1   force =    -0.00008367    0.00007557    0.00002438
     atom    2 type  1   force =     0.00012346   -0.00013974   -0.00000522
     atom    3 type  1   force =    -0.00008332   -0.00001945   -0.00006148
     atom    4 type  1   force =    -0.00001641    0.00007162    0.00002456
     atom    5 type  1   force =     0.00010154   -0.00004689    0.00005583
     atom    6 type  1   force =     0.00004159    0.00002036   -0.00002280
     atom    7 type  1   force =    -0.00007505    0.00006026    0.00000837
     atom    8 type  1   force =    -0.00000814   -0.00002174   -0.00002364

     Total force =     0.000306     Total SCF correction =     0.000002


     Computing stress (Cartesian axis) and pressure

          total   stress  (Ry/bohr**3)                   (kbar)     P=       -0.37
   0.00000043  -0.00000451  -0.00000008            0.06       -0.66       -0.01
  -0.00000451  -0.00000980   0.00000005           -0.66       -1.44        0.01
  -0.00000008   0.00000005   0.00000179           -0.01        0.01        0.26


     number of scf cycles    =   7
     number of bfgs steps    =   5

     enthalpy old            =     -91.1589812751 Ry
     enthalpy new            =     -91.1589843608 Ry

     CASE: enthalpy_new < enthalpy_old

     new trust radius        =       0.0030565087 bohr
     new conv_thr            =            1.0E-10 Ry

     new unit-cell volume =    549.88116 a.u.^3 (    81.48398 Ang^3 )
     density =      1.95636 g/cm^3

CELL_PARAMETERS (bohr)
  12.682834369  -0.669994188   0.014872808
   0.001349360   9.282418013   0.014361322
   0.004237086   0.005647154   4.670779535

ATOMIC_POSITIONS (crystal)
C             0.1363543007        0.4288929688        0.0146347927
C             0.3027721959        0.2627668118        0.0147844184
C             0.3864579549        0.1790950240       -0.4852158388
C             1.0526500507        0.5125179042        0.5146433776
C             0.8026327568        0.7625106186        1.0147779240
C             0.8862731417        0.6787531960        1.5147797769
C             0.6363854591        0.9289524519        0.0146374314
C             0.5527711402        0.0127450247        0.5146481178



     Writing output data file ./pp.save/
     NEW-OLD atomic charge density approx. for the potential
     extrapolated charge   31.97989, renormalised to   32.00000

     total cpu time spent up to now is       67.9 secs

     Self-consistent Calculation

     iteration #  1     ecut=    40.00 Ry     beta= 0.50
     Davidson diagonalization with overlap
     ethr =  1.00E-06,  avg # of iterations =  2.0

     Threshold (ethr) on eigenvalues was too large:
     Diagonalizing with lowered threshold

     Davidson diagonalization with overlap
     ethr =  1.56E-08,  avg # of iterations =  1.8

     total cpu time spent up to now is       72.1 secs

     total energy              =     -91.15901498 Ry
     Harris-Foulkes estimate   =     -91.18279444 Ry
     estimated scf accuracy    <       0.00000504 Ry

     iteration #  2     ecut=    40.00 Ry     beta= 0.50
     Davidson diagonalization with overlap
     ethr =  1.57E-08,  avg # of iterations =  3.0

     total cpu time spent up to now is       75.1 secs

     total energy              =     -91.15902651 Ry
     Harris-Foulkes estimate   =     -91.15902776 Ry
     estimated scf accuracy    <       0.00000387 Ry

     iteration #  3     ecut=    40.00 Ry     beta= 0.50
     Davidson diagonalization with overlap
     ethr =  1.21E-08,  avg # of iterations =  1.0

     total cpu time spent up to now is       76.8 secs

     total energy              =     -91.15902567 Ry
     Harris-Foulkes estimate   =     -91.15902663 Ry
     estimated scf accuracy    <       0.00000143 Ry

     iteration #  4     ecut=    40.00 Ry     beta= 0.50
     Davidson diagonalization with overlap
     ethr =  4.47E-09,  avg # of iterations =  2.0

     total cpu time spent up to now is       79.3 secs

     total energy              =     -91.15902600 Ry
     Harris-Foulkes estimate   =     -91.15902605 Ry
     estimated scf accuracy    <       0.00000010 Ry

     iteration #  5     ecut=    40.00 Ry     beta= 0.50
     Davidson diagonalization with overlap
     ethr =  3.23E-10,  avg # of iterations =  1.9

     total cpu time spent up to now is       81.6 secs

     total energy              =     -91.15902600 Ry
     Harris-Foulkes estimate   =     -91.15902601 Ry
     estimated scf accuracy    <       0.00000002 Ry

     iteration #  6     ecut=    40.00 Ry     beta= 0.50
     Davidson diagonalization with overlap
     ethr =  6.88E-11,  avg # of iterations =  1.0

     total cpu time spent up to now is       83.3 secs

     total energy              =     -91.15902600 Ry
     Harris-Foulkes estimate   =     -91.15902600 Ry
     estimated scf accuracy    <          7.1E-09 Ry

     iteration #  7     ecut=    40.00 Ry     beta= 0.50
     Davidson diagonalization with overlap
     ethr =  2.22E-11,  avg # of iterations =  2.0

     total cpu time spent up to now is       85.9 secs

     total energy              =     -91.15902600 Ry
     Harris-Foulkes estimate   =     -91.15902600 Ry
     estimated scf accuracy    <          4.3E-10 Ry

     iteration #  8     ecut=    40.00 Ry     beta= 0.50
     Davidson diagonalization with overlap
     ethr =  1.35E-12,  avg # of iterations =  2.1

     total cpu time spent up to now is       88.6 secs

     End of self-consistent calculation

          k = 0.0000 0.0000 0.0000 (  2359 PWs)   bands (ev):

   -14.0213 -12.4828 -12.4822  -8.6904  -7.7165  -1.9037  -1.9030  -1.6043
    -0.9106  -0.5929  -0.5925   0.4832   0.4839   2.4653   2.5294   3.1573
     7.0916   8.9591  12.7415  12.8276

          k =-0.0007-0.0008 0.5447 (  2369 PWs)   bands (ev):

   -13.3160 -11.7952 -11.7944  -8.0854  -7.1721  -3.3312  -2.6500  -2.6492
    -1.0484  -1.0479  -0.7866   0.2112   0.2154   0.2604   1.0401   4.0140
     6.7934   9.8620  11.4742  11.4792

          k =-0.0014-0.0017 1.0895 (  2345 PWs)   bands (ev):

   -11.2418  -9.7959  -9.7949  -8.0712  -6.3527  -6.3516  -6.2839  -4.6421
    -3.3684  -1.9569  -0.9408  -0.9402   1.5387   2.2982   2.3055   4.7167
     6.5223   7.9246   7.9337  10.4052

          k = 0.0241 0.4568-0.0006 (  2364 PWs)   bands (ev):

   -13.8216 -13.2806 -11.4097 -10.0135  -6.1717  -4.0879  -1.7887  -1.6738
    -0.7417  -0.2570   0.1918   1.1770   1.3700   1.8231   2.1787   2.6274
     8.1174  10.3964  10.4638  12.7939

          k = 0.0235 0.4560 0.5442 (  2352 PWs)   bands (ev):

   -13.1196 -12.5849 -10.7350  -9.3678  -5.7448  -4.0208  -3.1053  -2.3762
    -1.5047  -0.9579  -0.8424  -0.4048   0.3610   1.0751   1.9311   3.3971
     7.7295   9.5829  11.3133  13.1447

          k = 0.0228 0.4551 1.0889 (  2347 PWs)   bands (ev):

   -11.0556 -10.5456  -8.8465  -8.0978  -7.0347  -7.0246  -5.3818  -4.2123
    -3.5918  -2.0831  -1.2527  -0.6476   1.3938   1.4786   3.4347   4.2812
     6.8372   7.1956   9.2333  10.1737

          k = 0.0255 0.4585-1.0900 (  2348 PWs)   bands (ev):

   -11.0546 -10.5460  -8.8471  -8.0987  -7.0344  -7.0249  -5.3811  -4.2120
    -3.5921  -2.0827  -1.2526  -0.6479   1.3836   1.4819   3.4379   4.2898
     6.8426   7.1939   9.2260  10.1694

          k = 0.0248 0.4577-0.5453 (  2354 PWs)   bands (ev):

   -13.1191 -12.5852 -10.7354  -9.3681  -5.7449  -4.0207  -3.1061  -2.3758
    -1.5040  -0.9638  -0.8402  -0.4045   0.3608   1.0753   1.9351   3.3993
     7.7333   9.5791  11.3367  13.1391

          k =-0.5015 0.0001 0.0005 (  2372 PWs)   bands (ev):

   -13.6262 -13.6261 -10.6819 -10.6818  -5.1818  -5.1817  -1.4455  -1.4441
    -0.5411  -0.5410   1.0978   1.0978   1.3236   1.3236   1.8128   1.8129
     9.4746   9.4748  10.3328  10.3357

          k =-0.5022-0.0008 0.5452 (  2349 PWs)   bands (ev):

   -12.9253 -12.9247 -10.0234 -10.0233  -4.8868  -4.8864  -2.8270  -2.8265
    -0.9217  -0.9216  -0.6296  -0.6240   0.8342   0.8343   2.1030   2.1035
     8.9113   8.9166  11.1934  11.2138

          k =-0.5029-0.0016 1.0899 (  2350 PWs)   bands (ev):

   -10.8662 -10.8654  -8.3387  -8.3385  -7.1912  -7.1905  -4.7735  -4.7734
    -2.8438  -2.8437  -0.8736  -0.8735   1.6493   1.6585   3.6578   3.6607
     7.0063   7.0133   9.4234   9.4239

          k =-0.4774 0.4569-0.0001 (  2352 PWs)   bands (ev):

   -13.8990 -12.9946 -11.9841  -9.2090  -7.1579  -2.9861  -2.3678  -0.8585
    -0.8057  -0.4287   0.0754   0.2500   0.9190   2.2940   2.4360   2.9143
     7.6476  10.3150  11.5243  12.5727

          k =-0.4781 0.4561 0.5446 (  2351 PWs)   bands (ev):

   -13.1983 -12.2986 -11.3017  -8.5875  -6.6432  -3.2945  -3.2549  -2.0658
    -1.7797  -1.5207  -0.2852   0.0538   0.3609   1.0332   1.0863   3.7197
     7.2022  10.6645  11.2146  12.2840

          k =-0.4788 0.4552 1.0893 (  2356 PWs)   bands (ev):

   -11.1369 -10.2639  -9.3431  -8.0207  -6.7812  -6.5621  -5.8979  -4.3107
    -3.6456  -1.7186  -1.4239  -0.6587   0.9023   2.4435   2.9657   4.1926
     6.6336   7.9114   8.6642  10.3326

          k =-0.4760 0.4586-1.0896 (  2353 PWs)   bands (ev):

   -11.1362 -10.2636  -9.3439  -8.0214  -6.7813  -6.5625  -5.8971  -4.3104
[...]
     Davidson diagonalization with overlap
     ethr =  9.23E-08,  avg # of iterations =  1.0

     total cpu time spent up to now is     1985.0 secs

     total energy              =     -91.15948844 Ry
     Harris-Foulkes estimate   =     -91.15949319 Ry
     estimated scf accuracy    <       0.00001029 Ry

     iteration #  4     ecut=    40.00 Ry     beta= 0.50
     Davidson diagonalization with overlap
     ethr =  3.21E-08,  avg # of iterations =  2.0

     total cpu time spent up to now is     1999.5 secs

     total energy              =     -91.15949057 Ry
     Harris-Foulkes estimate   =     -91.15949077 Ry
     estimated scf accuracy    <       0.00000094 Ry

     iteration #  5     ecut=    40.00 Ry     beta= 0.50
     Davidson diagonalization with overlap
     ethr =  2.92E-09,  avg # of iterations =  1.4

     total cpu time spent up to now is     2010.8 secs

     total energy              =     -91.15949048 Ry
     Harris-Foulkes estimate   =     -91.15949067 Ry
     estimated scf accuracy    <       0.00000042 Ry

     iteration #  6     ecut=    40.00 Ry     beta= 0.50
     Davidson diagonalization with overlap
     ethr =  1.32E-09,  avg # of iterations =  1.9

     total cpu time spent up to now is     2023.7 secs

     total energy              =     -91.15949046 Ry
     Harris-Foulkes estimate   =     -91.15949051 Ry
     estimated scf accuracy    <       0.00000008 Ry

     iteration #  7     ecut=    40.00 Ry     beta= 0.50
     Davidson diagonalization with overlap
     ethr =  2.38E-10,  avg # of iterations =  2.0

     total cpu time spent up to now is     2038.2 secs

     total energy              =     -91.15949048 Ry
     Harris-Foulkes estimate   =     -91.15949048 Ry
     estimated scf accuracy    <          5.3E-09 Ry

     iteration #  8     ecut=    40.00 Ry     beta= 0.50
     Davidson diagonalization with overlap
     ethr =  1.65E-11,  avg # of iterations =  2.0

     total cpu time spent up to now is     2052.3 secs

     total energy              =     -91.15949048 Ry
     Harris-Foulkes estimate   =     -91.15949048 Ry
     estimated scf accuracy    <          2.9E-10 Ry

     iteration #  9     ecut=    40.00 Ry     beta= 0.50
     Davidson diagonalization with overlap
     ethr =  9.00E-13,  avg # of iterations =  2.1

     total cpu time spent up to now is     2067.6 secs

     End of self-consistent calculation

          k = 0.0000 0.0000 0.0000 (  2359 PWs)   bands (ev):

   -13.9635 -12.4531 -12.4525  -8.6278  -7.6351  -1.8523  -1.8514  -1.5295
    -0.8516  -0.2839  -0.2815   0.5329   0.5335   2.5006   2.5744   2.9643
     6.8488   9.0338  12.3744  12.3923

          k = 0.0005 0.0007 0.5446 (  2369 PWs)   bands (ev):

   -13.2582 -11.7647 -11.7630  -8.0243  -7.0931  -3.2726  -2.6081  -2.5951
    -1.0082  -0.9932  -0.7138   0.3069   0.5112   0.5145   1.0898   3.8262
     6.6490   9.9354  11.5010  11.5164

          k = 0.0010 0.0015 1.0892 (  2345 PWs)   bands (ev):

   -11.1837  -9.7634  -9.7589  -8.0109  -6.3151  -6.3102  -6.2260  -4.5703
    -3.3167  -1.8926  -0.8942  -0.8896   1.6026   2.5619   2.5640   4.7367
     6.3528   8.1444   8.1714  10.2753

          k = 0.0041 0.5137 0.0008 (  2364 PWs)   bands (ev):

   -13.7512 -13.2148 -11.3722  -9.9337  -6.1488  -4.0678  -1.8395  -1.6722
    -0.6819  -0.1986   0.2425   1.3975   1.4150   1.8603   2.2246   2.3862
     8.3394  10.7180  11.0026  12.3550

          k = 0.0046 0.5144 0.5454 (  2352 PWs)   bands (ev):

   -13.0494 -12.5195 -10.6977  -9.2892  -5.7207  -3.9810  -3.0445  -2.3336
    -1.4632  -1.0122  -0.8370  -0.3459   0.4123   1.1076   2.1407   3.1656
     7.9214   9.7542  11.8546  13.1785

          k = 0.0051 0.5151 1.0901 (  2347 PWs)   bands (ev):

   -10.9869 -10.4812  -8.8079  -8.0226  -6.9786  -6.9619  -5.3411  -4.1482
    -3.5560  -2.0537  -1.2160  -0.6053   1.3424   1.4979   3.5543   4.1945
     6.7991   7.3090   9.3683  10.0499

          k = 0.0032 0.5122-1.0884 (  2348 PWs)   bands (ev):

   -10.9872 -10.4830  -8.8009  -8.0317  -6.9812  -6.9546  -5.3370  -4.1522
    -3.5598  -2.0494  -1.2131  -0.6095   1.3566   1.4923   3.5688   4.1705
     6.8039   7.2919   9.3752  10.0571

          k = 0.0037 0.5129-0.5438 (  2354 PWs)   bands (ev):

   -13.0498 -12.5202 -10.6962  -9.2910  -5.7136  -3.9934  -3.0487  -2.3216
    -1.4522  -1.0048  -0.8389  -0.3551   0.3994   1.1179   2.1457   3.1557
     7.9220   9.7452  11.8293  13.1819

          k =-0.4478 0.0213-0.0005 (  2372 PWs)   bands (ev):

   -13.5912 -13.5703 -10.6506 -10.6287  -5.1134  -5.0957  -1.2469  -1.2413
    -0.5024  -0.4676   1.1120   1.1505   1.4315   1.4563   1.8358   1.8804
     9.1213   9.1514   9.9355   9.9699

          k =-0.4473 0.0221 0.5441 (  2349 PWs)   bands (ev):

   -12.8896 -12.8686  -9.9921  -9.9693  -4.8255  -4.8043  -2.7867  -2.7558
    -0.8942  -0.8590  -0.4354  -0.4293   0.8570   0.8922   2.2111   2.2337
     8.7116   8.7394  10.8181  10.8553

          k =-0.4468 0.0228 1.0887 (  2350 PWs)   bands (ev):

   -10.8290 -10.8075  -8.3058  -8.2803  -7.1524  -7.1319  -4.7421  -4.7155
    -2.7862  -2.7701  -0.8302  -0.8083   1.8227   1.8291   3.7806   3.7989
     7.0358   7.0672   9.4848   9.5075

          k =-0.4437 0.5350 0.0003 (  2352 PWs)   bands (ev):

   -13.8405 -12.9264 -11.8983  -9.2007  -7.1045  -2.9423  -2.2912  -0.8006
    -0.7848  -0.5008   0.0082   0.1319   0.9735   2.3374   2.4749   3.2485
     7.7950  10.8328  11.5079  12.4728

          k =-0.4432 0.5357 0.5449 (  2351 PWs)   bands (ev):

   -13.1393 -12.2312 -11.2175  -8.5783  -6.5876  -3.2502  -3.1968  -2.0027
    -1.7240  -1.4483  -0.2627   0.0837   0.2882   0.8099   1.1380   4.0537
     7.2833  10.6462  11.7091  12.3159

          k =-0.4427 0.5365 1.0895 (  2356 PWs)   bands (ev):

   -11.0777 -10.1985  -9.2625  -7.9695  -6.7232  -6.5384  -5.8244  -4.2593
    -3.6217  -1.6664  -1.3791  -0.6248   0.9720   2.3746   2.8137   4.3248
     6.8400   7.8218   8.4965  10.5219

          k =-0.4447 0.5335-1.0890 (  2353 PWs)   bands (ev):

   -11.0789 -10.1968  -9.2667  -7.9638  -6.7153  -6.5454  -5.8299  -4.2553
    -3.6199  -1.6693  -1.3831  -0.6206   0.9781   2.3917   2.7957   4.3236
     6.8259   7.8252   8.4953  10.5306

          k =-0.4442 0.5343-0.5443 (  2353 PWs)   bands (ev):

   -13.1399 -12.2308 -11.2184  -8.5755  -6.5917  -3.2350  -3.1942  -2.0156
    -1.7384  -1.4446  -0.2495   0.0904   0.2960   0.8024   1.1300   4.0543
     7.2728  10.6490  11.6966  12.3135

     the Fermi energy is     4.9611 ev

!    total energy              =     -91.15949048 Ry
     Harris-Foulkes estimate   =     -91.15949048 Ry
     estimated scf accuracy    <          2.8E-11 Ry

     The total energy is the sum of the following terms:

     one-electron contribution =     -45.15448177 Ry
     hartree contribution      =      36.59907604 Ry
     xc contribution           =     -27.95034941 Ry
     ewald contribution        =     -54.65415024 Ry
     smearing contrib. (-TS)   =       0.00041490 Ry

     convergence has been achieved in   9 iterations

     Forces acting on atoms (cartesian axes, Ry/au):

     atom    1 type  1   force =     0.00038644    0.00040957    0.00151922
     atom    2 type  1   force =     0.00160841   -0.00275757   -0.00445591
     atom    3 type  1   force =    -0.00708091    0.00338610    0.00194207
     atom    4 type  1   force =    -0.00190578    0.00266783    0.00060761
     atom    5 type  1   force =    -0.00258818    0.00238500   -0.00037622
     atom    6 type  1   force =     0.00755615   -0.00468569    0.00173473
     atom    7 type  1   force =     0.00073721   -0.00009973    0.00205117
     atom    8 type  1   force =     0.00128666   -0.00130551   -0.00302269

     Total force =     0.014866     Total SCF correction =     0.000007


     Computing stress (Cartesian axis) and pressure

          total   stress  (Ry/bohr**3)                   (kbar)     P=       -3.72
  -0.00004566   0.00003879   0.00001127           -6.72        5.71        1.66
   0.00003879  -0.00001599  -0.00000694            5.71       -2.35       -1.02
   0.00001127  -0.00000694  -0.00001422            1.66       -1.02       -2.09


     number of scf cycles    =  34
     number of bfgs steps    =  32

     enthalpy old            =     -91.1594179064 Ry
     enthalpy new            =     -91.1594532563 Ry

     CASE: enthalpy_new < enthalpy_old

     new trust radius        =       0.0495221159 bohr
     new conv_thr            =            1.0E-10 Ry

     new unit-cell volume =    549.11735 a.u.^3 (    81.37080 Ang^3 )
     density =      1.95908 g/cm^3

CELL_PARAMETERS (bohr)
  14.317005011  -0.044334175  -0.015077297
   0.449205513   8.207119392  -0.013872343
  -0.006394575  -0.008206115   4.672512947

ATOMIC_POSITIONS (crystal)
C             0.1360975806        0.4281032789        0.0143298121
C             0.3037739219        0.2660600281        0.0155154975
C             0.3879785654        0.1825505240       -0.4850438430
C             1.0517829776        0.5096527120        0.5144265270
C             0.8017196078        0.7593669688        1.0144306582
C             0.8847990173        0.6756118430        1.5140593332
C             0.6365463028        0.9296056142        0.0146935461
C             0.5535990266        0.0152830311        0.5152784690



     Writing output data file ./pp.save/
     NEW-OLD atomic charge density approx. for the potential
     extrapolated charge   32.09070, renormalised to   32.00000

     total cpu time spent up to now is     2068.1 secs

     Self-consistent Calculation

     iteration #  1     ecut=    40.00 Ry     beta= 0.50
     Davidson diagonalization with overlap
     ethr =  1.00E-06,  avg # of iterations =  4.5

     total cpu time spent up to now is     2096.3 secs

     total energy              =     -91.15933524 Ry
     Harris-Foulkes estimate   =     -91.05379605 Ry
     estimated scf accuracy    <       0.00013173 Ry

     iteration #  2     ecut=    40.00 Ry     beta= 0.50
     Davidson diagonalization with overlap
     ethr =  4.12E-07,  avg # of iterations =  3.2

     total cpu time spent up to now is     2116.0 secs

     total energy              =     -91.15957148 Ry
     Harris-Foulkes estimate   =     -91.15959779 Ry
     estimated scf accuracy    <       0.00009066 Ry

     iteration #  3     ecut=    40.00 Ry     beta= 0.50
     Davidson diagonalization with overlap
     ethr =  2.83E-07,  avg # of iterations =  1.0

     total cpu time spent up to now is     2126.7 secs

     total energy              =     -91.15956123 Ry
     Harris-Foulkes estimate   =     -91.15957478 Ry
     estimated scf accuracy    <       0.00003202 Ry

     iteration #  4     ecut=    40.00 Ry     beta= 0.50
     Davidson diagonalization with overlap
     ethr =  1.00E-07,  avg # of iterations =  2.0

     total cpu time spent up to now is     2140.9 secs

     total energy              =     -91.15956358 Ry
     Harris-Foulkes estimate   =     -91.15956543 Ry
     estimated scf accuracy    <       0.00000571 Ry

     iteration #  5     ecut=    40.00 Ry     beta= 0.50
     Davidson diagonalization with overlap
     ethr =  1.78E-08,  avg # of iterations =  2.0

     total cpu time spent up to now is     2156.0 secs

     total energy              =     -91.15956456 Ry
     Harris-Foulkes estimate   =     -91.15956518 Ry
     estimated scf accuracy    <       0.00000129 Ry

     iteration #  6     ecut=    40.00 Ry     beta= 0.50
     Davidson diagonalization with overlap
     ethr =  4.02E-09,  avg # of iterations =  2.0

     total cpu time spent up to now is     2170.0 secs

     total energy              =     -91.15956459 Ry
     Harris-Foulkes estimate   =     -91.15956467 Ry
     estimated scf accuracy    <       0.00000013 Ry

     iteration #  7     ecut=    40.00 Ry     beta= 0.50
     Davidson diagonalization with overlap
     ethr =  4.15E-10,  avg # of iterations =  2.0

     total cpu time spent up to now is     2185.2 secs

     total energy              =     -91.15956462 Ry
     Harris-Foulkes estimate   =     -91.15956463 Ry
     estimated scf accuracy    <          7.9E-09 Ry

     iteration #  8     ecut=    40.00 Ry     beta= 0.50
     Davidson diagonalization with overlap
     ethr =  2.48E-11,  avg # of iterations =  2.0

     total cpu time spent up to now is     2201.4 secs

     total energy              =     -91.15956462 Ry
     Harris-Foulkes estimate   =     -91.15956462 Ry
     estimated scf accuracy    <          1.0E-10 Ry

     iteration #  9     ecut=    40.00 Ry     beta= 0.50
     Davidson diagonalization with overlap
     ethr =  3.24E-13,  avg # of iterations =  3.1

     total cpu time spent up to now is     2220.8 secs

     End of self-consistent calculation

          k = 0.0000 0.0000 0.0000 (  2359 PWs)   bands (ev):

   -13.9917 -12.4835 -12.4833  -8.6528  -7.6652  -1.8746  -1.8735  -1.5675
    -0.8865  -0.2899  -0.2894   0.4991   0.4995   2.4753   2.5446   2.9492
     6.8331   8.9922  12.2573  12.2658

          k = 0.0006 0.0009 0.5445 (  2369 PWs)   bands (ev):

   -13.2868 -11.7956 -11.7938  -8.0495  -7.1237  -3.3054  -2.6400  -2.6238
    -1.0354  -1.0167  -0.7519   0.2774   0.5033   0.5061   1.0631   3.8108
     6.6276   9.8940  11.4685  11.4862

          k = 0.0012 0.0018 1.0891 (  2345 PWs)   bands (ev):

   -11.2134  -9.7952  -9.7903  -8.0425  -6.3471  -6.3409  -6.2527  -4.5998
    -3.3442  -1.9218  -0.9191  -0.9127   1.5651   2.5502   2.5508   4.7031
     6.3357   8.1281   8.1598  10.2556

          k = 0.0016 0.5166 0.0009 (  2364 PWs)   bands (ev):

   -13.7799 -13.2453 -11.3987  -9.9575  -6.1775  -4.0917  -1.8755  -1.6931
    -0.7167  -0.2333   0.2182   1.3599   1.3827   1.8357   2.1937   2.3376
     8.3393  10.6831  10.9784  12.3268

          k = 0.0022 0.5175 0.5454 (  2352 PWs)   bands (ev):

   -13.0784 -12.5502 -10.7246  -9.3135  -5.7505  -4.0070  -3.0766  -2.3654
    -1.4951  -1.0488  -0.8583  -0.3736   0.3886   1.0797   2.1028   3.1176
     7.9126   9.7253  11.8318  13.1491

          k = 0.0028 0.5184 1.0900 (  2347 PWs)   bands (ev):

   -11.0169 -10.5125  -8.8370  -8.0521  -7.0051  -6.9938  -5.3709  -4.1745
    -3.5838  -2.0795  -1.2450  -0.6298   1.3052   1.4748   3.5199   4.1541
     6.7678   7.2820   9.3334  10.0118

          k = 0.0004 0.5148-1.0881 (  2348 PWs)   bands (ev):

   -11.0173 -10.5146  -8.8291  -8.0627  -7.0138  -6.9796  -5.3653  -4.1798
    -3.5891  -2.0734  -1.2405  -0.6358   1.3215   1.4684   3.5375   4.1263
     6.7747   7.2609   9.3414  10.0192

          k = 0.0010 0.5157-0.5436 (  2354 PWs)   bands (ev):

   -13.0788 -12.5509 -10.7230  -9.3154  -5.7423  -4.0218  -3.0818  -2.3506
    -1.4812  -1.0404  -0.8604  -0.3856   0.3724   1.0929   2.1092   3.1062
     7.9139   9.7138  11.8027  13.1529

          k =-0.4442 0.0243-0.0006 (  2372 PWs)   bands (ev):

   -13.6189 -13.6011 -10.6819 -10.6574  -5.1372  -5.1205  -1.2749  -1.2662
    -0.5363  -0.5029   1.0870   1.1296   1.4271   1.4552   1.8009   1.8508
     9.0835   9.1177   9.8617   9.8977

          k =-0.4436 0.0252 0.5440 (  2349 PWs)   bands (ev):

   -12.9176 -12.8996 -10.0236  -9.9981  -4.8518  -4.8303  -2.8179  -2.7877
    -0.9280  -0.8875  -0.4637  -0.4548   0.8297   0.8703   2.2050   2.2317
     8.6747   8.7062  10.7456  10.7850

          k =-0.4431 0.0261 1.0885 (  2350 PWs)   bands (ev):

   -10.8579 -10.8395  -8.3388  -8.3106  -7.1829  -7.1618  -4.7747  -4.7443
    -2.8115  -2.7955  -0.8574  -0.8326   1.7941   1.8027   3.7637   3.7854
     7.0092   7.0470   9.4687   9.4972

          k =-0.4426 0.5409 0.0003 (  2352 PWs)   bands (ev):

   -13.8712 -12.9532 -11.9258  -9.2270  -7.1291  -2.9688  -2.3122  -0.8349
    -0.8101  -0.5494  -0.0279   0.0982   0.9405   2.3126   2.4446   3.2281
     7.7494  10.8377  11.5057  12.3854

          k =-0.4420 0.5418 0.5449 (  2351 PWs)   bands (ev):

   -13.1702 -12.2583 -11.2453  -8.6050  -6.6128  -3.2810  -3.2310  -2.0319
    -1.7510  -1.4701  -0.2903   0.0532   0.2395   0.7740   1.1132   4.0337
     7.2420  10.6273  11.7119  12.2929

          k =-0.4415 0.5427 1.0894 (  2356 PWs)   bands (ev):

   -11.1094 -10.2270  -9.2912  -8.0028  -6.7537  -6.5637  -5.8535  -4.2865
    -3.6499  -1.6926  -1.4047  -0.6515   0.9485   2.3278   2.7779   4.3005
     6.8119   7.7822   8.4618  10.4946

          k =-0.4438 0.5391-1.0887 (  2353 PWs)   bands (ev):

   -11.1107 -10.2251  -9.2960  -7.9963  -6.7436  -6.5727  -5.8606  -4.2812
    -3.6471  -1.6968  -1.4105  -0.6454   0.9553   2.3478   2.7572   4.2997
     6.7954   7.7872   8.4587  10.5043

          k =-0.4432 0.5400-0.5442 (  2353 PWs)   bands (ev):

   -13.1709 -12.2579 -11.2462  -8.6019  -6.6176  -3.2633  -3.2272  -2.0479
    -1.7688  -1.4659  -0.2733   0.0618   0.2485   0.7657   1.1029   4.0348
     7.2298  10.6310  11.6971  12.2884

     the Fermi energy is     4.9249 ev

!    total energy              =     -91.15956462 Ry
     Harris-Foulkes estimate   =     -91.15956462 Ry
     estimated scf accuracy    <          3.3E-11 Ry

     The total energy is the sum of the following terms:

     one-electron contribution =     -45.71392314 Ry
     hartree contribution      =      36.84582121 Ry
     xc contribution           =     -27.95143912 Ry
     ewald contribution        =     -54.34045662 Ry
     smearing contrib. (-TS)   =       0.00043306 Ry

     convergence has been achieved in   9 iterations

     Forces acting on atoms (cartesian axes, Ry/au):

     atom    1 type  1   force =     0.00017079    0.00033965    0.00177757
     atom    2 type  1   force =     0.00216194   -0.00368987   -0.00359411
     atom    3 type  1   force =    -0.00715329    0.00448663    0.00276533
     atom    4 type  1   force =    -0.00231018    0.00313075   -0.00100059
     atom    5 type  1   force =    -0.00308954    0.00372282   -0.00146650
     atom    6 type  1   force =     0.00763731   -0.00525440    0.00211181
     atom    7 type  1   force =     0.00082517   -0.00042535    0.00227730
     atom    8 type  1   force =     0.00175780   -0.00231022   -0.00287082

     Total force =     0.016379     Total SCF correction =     0.000011


     Computing stress (Cartesian axis) and pressure

          total   stress  (Ry/bohr**3)                   (kbar)     P=       -3.02
  -0.00003015   0.00002838   0.00001321           -4.43        4.17        1.94
   0.00002838  -0.00001002  -0.00000763            4.17       -1.47       -1.12
   0.00001321  -0.00000763  -0.00002139            1.94       -1.12       -3.15


     number of scf cycles    =  35
     number of bfgs steps    =  33

     enthalpy old            =     -91.1594532563 Ry
     enthalpy new            =     -91.1595272959 Ry

     CASE: enthalpy_new < enthalpy_old

     new trust radius        =       0.0737491616 bohr
     new conv_thr            =            1.0E-10 Ry

     new unit-cell volume =    550.99871 a.u.^3 (    81.64958 Ang^3 )
     density =      1.95239 g/cm^3

CELL_PARAMETERS (bohr)
  14.501788431   0.056988179  -0.018348538
   0.528563599   8.132838929  -0.017415024
  -0.007309559  -0.009572594   4.673050396

ATOMIC_POSITIONS (crystal)
C             0.1361002590        0.4280871791        0.0147533169
C             0.3037912586        0.2663973760        0.0148547507
C             0.3879751949        0.1828086252       -0.4858536804
C             1.0517711229        0.5093392838        0.5149731109
C             0.8016601643        0.7588238210        1.0149150954
C             0.8847235233        0.6751827841        1.5145751584
C             0.6365908695        0.9298324241        0.0145013987
C             0.5536846074        0.0157625066        0.5149708492



     Writing output data file ./pp.save/
     NEW-OLD atomic charge density approx. for the potential
     extrapolated charge   32.10926, renormalised to   32.00000

     total cpu time spent up to now is     2221.3 secs

     Self-consistent Calculation

     iteration #  1     ecut=    40.00 Ry     beta= 0.50
     Davidson diagonalization with overlap
