
     Program PWSCF v.6.5 starts on  8Jul2022 at 14: 3:57 

     This program is part of the open-source Quantum ESPRESSO suite
     for quantum simulation of materials; please cite
         "P. Giannozzi et al., J. Phys.:Condens. Matter 21 395502 (2009);
         "P. Giannozzi et al., J. Phys.:Condens. Matter 29 465901 (2017);
          URL http://www.quantum-espresso.org", 
     in publications or presentations arising from this work. More details at
     http://www.quantum-espresso.org/quote

     Parallel version (MPI), running on    96 processors

     MPI processes distributed on     2 nodes
     R & G space division:  proc/nbgrp/npool/nimage =      96
     Waiting for input...
     Reading input from standard input
     Message from routine read_cards :
     DEPRECATED: no units specified in CELL_PARAMETERS card

     Current dimensions of program PWSCF are:
     Max number of different atomic species (ntypx) = 10
     Max number of k-points (npk) =  40000
     Max angular momentum in pseudopotentials (lmaxx) =  3

     Subspace diagonalization in iterative solution of the eigenvalue problem:
     one sub-group per band group will be used
     scalapack distributed-memory algorithm (size of sub-group:  9*  9 procs)

 
     Parallelization info
     --------------------
     sticks:   dense  smooth     PW     G-vecs:    dense   smooth      PW
     Min          15      15      4                  189      189      32
     Max          16      16      5                  192      192      37
     Sum        1459    1459    461                18283    18283    3279
 


     bravais-lattice index     =            0
     lattice parameter (alat)  =      13.1629  a.u.
     unit-cell volume          =     534.8272 (a.u.)^3
     number of atoms/cell      =            8
     number of atomic types    =            1
     number of electrons       =        32.00
     number of Kohn-Sham states=           20
     kinetic-energy cutoff     =      40.0000  Ry
     charge density cutoff     =     160.0000  Ry
     convergence threshold     =      1.0E-06
     mixing beta               =       0.5000
     number of iterations used =            8  plain     mixing
     Exchange-correlation=  SLA  PW   PBE  PBE
                           (   1   4   3   4   0   0   0)
     nstep                     =          250


     celldm(1)=  13.162907  celldm(2)=   0.000000  celldm(3)=   0.000000
     celldm(4)=   0.000000  celldm(5)=   0.000000  celldm(6)=   0.000000

     crystal axes: (cart. coord. in units of alat)
               a(1) = (   0.999498  -0.031680   0.000152 )  
               a(2) = (  -0.009884   0.661533   0.000365 )  
               a(3) = (   0.000091   0.000030   0.354838 )  

     reciprocal axes: (cart. coord. in units 2 pi/alat)
               b(1) = (  1.000976  0.014956 -0.000258 )  
               b(2) = (  0.047935  1.512356 -0.000142 )  
               b(3) = ( -0.000478 -0.001561  2.818187 )  


     PseudoPot. # 1 for C  read from file:
     ./C.pbe-van_bm.upf
     MD5 check sum: 1a69bf6b8db32088f5b2163dbdb77a27
     Pseudo is Ultrasoft, Zval =  4.0
     Generated by new atomic code, or converted to UPF format
     Using radial grid of  721 points,  4 beta functions with: 
                l(1) =   0
                l(2) =   0
                l(3) =   1
                l(4) =   1
     Q(r) pseudized with  8 coefficients,  rinner =    0.800   0.800   0.800


     atomic species   valence    mass     pseudopotential
        C              4.00    12.00000     C ( 1.00)

     No symmetry found



   Cartesian axes

     site n.     atom                  positions (alat units)
         1           C   tau(   1) = (   0.7074771   0.4507284   0.0993978  )
         2           C   tau(   2) = (   0.9599483   0.2775601   0.2768169  )
         3           C   tau(   3) = (   0.5476491  -0.0944948   0.0989378  )
         4           C   tau(   4) = (   0.2126937   0.1358235   0.0991341  )
         5           C   tau(   5) = (   0.4552135   0.6240893   0.2767398  )
         6           C   tau(   6) = (   0.7901351   0.3937080   0.2768187  )
         7           C   tau(   7) = (   0.0431134   0.2522063   0.4540660  )
         8           C   tau(   8) = (   0.2953222   0.0787644   0.2765146  )

     number of k points=    12  Marzari-Vanderbilt smearing, width (Ry)=  0.0200
                       cart. coord. in units 2pi/alat
        k(    1) = (   0.0000000   0.0000000   0.0000000), wk =   0.1250000
        k(    2) = (  -0.0001195  -0.0003902   0.7045469), wk =   0.2500000
        k(    3) = (   0.0002389   0.0007803  -1.4090937), wk =   0.1250000
        k(    4) = (  -0.0239677  -0.7561781   0.0000709), wk =   0.1250000
        k(    5) = (  -0.0240872  -0.7565683   0.7046178), wk =   0.2500000
        k(    6) = (  -0.0237288  -0.7553978  -1.4090228), wk =   0.1250000
        k(    7) = (  -0.5004881  -0.0074778   0.0001292), wk =   0.1250000
        k(    8) = (  -0.5006076  -0.0078679   0.7046761), wk =   0.2500000
        k(    9) = (  -0.5002492  -0.0066975  -1.4089645), wk =   0.1250000
        k(   10) = (  -0.5244558  -0.7636559   0.0002001), wk =   0.1250000
        k(   11) = (  -0.5245753  -0.7640460   0.7047470), wk =   0.2500000
        k(   12) = (  -0.5242169  -0.7628756  -1.4088936), wk =   0.1250000

     Dense  grid:    18283 G-vectors     FFT dimensions: (  54,  36,  20)

     Estimated max dynamical RAM per process >       2.35 MB

     Estimated total dynamical RAM >     225.24 MB

     Initial potential from superposition of free atoms

     starting charge   31.99968, renormalised to   32.00000
     Starting wfcs are   32 randomized atomic wfcs

     total cpu time spent up to now is        0.6 secs

     Self-consistent Calculation

     iteration #  1     ecut=    40.00 Ry     beta= 0.50
     Davidson diagonalization with overlap
     ethr =  1.00E-02,  avg # of iterations =  2.2

     total cpu time spent up to now is        1.3 secs

     total energy              =     -91.12086634 Ry
     Harris-Foulkes estimate   =     -91.49852653 Ry
     estimated scf accuracy    <       0.77678768 Ry

     iteration #  2     ecut=    40.00 Ry     beta= 0.50
     Davidson diagonalization with overlap
     ethr =  2.43E-03,  avg # of iterations =  2.0

     total cpu time spent up to now is        1.9 secs

     total energy              =     -91.14929638 Ry
     Harris-Foulkes estimate   =     -91.18181625 Ry
     estimated scf accuracy    <       0.07215498 Ry

     iteration #  3     ecut=    40.00 Ry     beta= 0.50
     Davidson diagonalization with overlap
     ethr =  2.25E-04,  avg # of iterations =  4.2

     total cpu time spent up to now is        2.8 secs

     total energy              =     -91.16050734 Ry
     Harris-Foulkes estimate   =     -91.16048769 Ry
     estimated scf accuracy    <       0.00199572 Ry

     iteration #  4     ecut=    40.00 Ry     beta= 0.50
     Davidson diagonalization with overlap
     ethr =  6.24E-06,  avg # of iterations =  3.6

     total cpu time spent up to now is        3.6 secs

     total energy              =     -91.16068657 Ry
     Harris-Foulkes estimate   =     -91.16073953 Ry
     estimated scf accuracy    <       0.00014873 Ry

     iteration #  5     ecut=    40.00 Ry     beta= 0.50
     Davidson diagonalization with overlap
     ethr =  4.65E-07,  avg # of iterations =  3.2

     total cpu time spent up to now is        4.3 secs

     total energy              =     -91.16071721 Ry
     Harris-Foulkes estimate   =     -91.16071847 Ry
     estimated scf accuracy    <       0.00000403 Ry

     iteration #  6     ecut=    40.00 Ry     beta= 0.50
     Davidson diagonalization with overlap
     ethr =  1.26E-08,  avg # of iterations =  2.6

     total cpu time spent up to now is        5.0 secs

     End of self-consistent calculation

          k = 0.0000 0.0000 0.0000 (  2279 PWs)   bands (ev):

   -13.7546 -12.2053 -12.2050  -8.4259  -7.3194  -1.5263  -1.5262  -1.2418
    -0.7224  -0.2641  -0.2633   0.6416   0.6420   2.6110   2.9555   3.1662
     7.3127   9.3589  12.9714  13.1523

          k =-0.0001-0.0004 0.7045 (  2287 PWs)   bands (ev):

   -12.6563 -11.1354 -11.1350  -7.4937  -6.5486  -4.0080  -3.2270  -3.2266
    -0.8143  -0.8142  -0.5063   0.0300   0.7967   0.9845   0.9863   4.5111
     6.8138  10.7622  10.9798  10.9820

          k = 0.0002 0.0008-1.4091 (  2298 PWs)   bands (ev):

    -9.4796  -9.4796  -8.4478  -8.4478  -7.4438  -7.4434  -4.7398  -4.7398
    -3.0519  -3.0519  -0.5484  -0.5482   3.3388   3.3414   3.4781   3.4781
     7.2640   7.2672   8.3799   8.3804

          k =-0.0240-0.7562 0.0001 (  2296 PWs)   bands (ev):

   -13.2948 -13.2943 -10.4765 -10.4762  -4.8132  -4.8131  -1.6479  -1.6476
    -0.3507  -0.3503   1.5454   1.5468   1.9174   1.9180   2.3135   2.3139
     9.6859   9.6869  12.9563  13.2047

          k =-0.0241-0.7566 0.7046 (  2283 PWs)   bands (ev):

   -12.2080 -12.2075  -9.4479  -9.4476  -4.6860  -4.6857  -3.1609  -3.1606
    -1.6830  -1.6825  -0.3433  -0.3419   0.8408   0.8417   3.4553   3.4558
     8.5460   8.5479  13.1294  13.1300

          k =-0.0237-0.7554-1.4090 (  2276 PWs)   bands (ev):

    -9.0888  -9.0884  -9.0871  -9.0866  -6.2480  -6.2477  -6.2464  -6.2462
    -1.5586  -1.5583  -1.5546  -1.5543   3.1159   3.1180   3.1185   3.1199
     8.2236   8.2245   8.2253   8.2255

          k =-0.5005-0.0075 0.0001 (  2274 PWs)   bands (ev):

   -13.3583 -13.3579 -10.3867 -10.3864  -4.8241  -4.8240  -1.0719  -1.0711
    -0.3600  -0.3597   1.5004   1.5006   1.5348   1.5362   1.9287   1.9293
     9.7075   9.7085  10.5996  10.6007

          k =-0.5006-0.0079 0.7047 (  2292 PWs)   bands (ev):

   -12.2665 -12.2661  -9.3665  -9.3662  -4.7068  -4.7064  -3.1753  -3.1750
    -1.6497  -1.6492   0.1969   0.1987   0.8333   0.8343   2.7122   2.7127
     8.7701   8.7720  11.9329  11.9379

          k =-0.5002-0.0067-1.4090 (  2278 PWs)   bands (ev):

    -9.1305  -9.1302  -9.1287  -9.1285  -6.1910  -6.1907  -6.1893  -6.1891
    -1.5641  -1.5640  -1.5602  -1.5598   3.4012   3.4028   3.4038   3.4054
     7.7898   7.7901   7.7910   7.7915

          k =-0.5245-0.7637 0.0002 (  2304 PWs)   bands (ev):

   -13.6373 -12.2455 -12.2452  -8.4846  -7.3658  -2.3032  -1.4950  -1.4949
    -0.7063   0.1052   0.1060   0.6365   0.6370   2.6036   2.9521   3.6664
     7.9205  12.2191  12.2235  13.0264

          k =-0.5246-0.7640 0.7047 (  2285 PWs)   bands (ev):

   -12.5479 -11.1726 -11.1722  -7.5461  -6.5760  -3.9742  -3.2391  -3.2388
    -0.9737  -0.7929  -0.7927  -0.5264   0.7845   1.3323   1.3340   4.9912
     6.8575  11.0252  11.0276  13.5981

          k =-0.5242-0.7629-1.4089 (  2278 PWs)   bands (ev):

    -9.3970  -9.3970  -8.4797  -8.4791  -7.4679  -7.4677  -4.7773  -4.7773
    -3.0805  -3.0804  -0.5329  -0.5328   2.7233   2.7235   3.6156   3.6179
     7.5701   7.5739   8.7877   8.7881

     the Fermi energy is     5.2378 ev

!    total energy              =     -91.16071821 Ry
     Harris-Foulkes estimate   =     -91.16071830 Ry
     estimated scf accuracy    <       0.00000049 Ry

     The total energy is the sum of the following terms:

     one-electron contribution =     -41.30663021 Ry
     hartree contribution      =      34.95604425 Ry
     xc contribution           =     -27.96986152 Ry
     ewald contribution        =     -56.84073534 Ry
     smearing contrib. (-TS)   =       0.00046461 Ry

     convergence has been achieved in   6 iterations

     Forces acting on atoms (cartesian axes, Ry/au):

     atom    1 type  1   force =    -0.00643180    0.00304131   -0.00011552
     atom    2 type  1   force =    -0.00644575    0.00276019   -0.00013033
     atom    3 type  1   force =     0.00653321   -0.00314377    0.00036570
     atom    4 type  1   force =    -0.00640869    0.00301482   -0.00008986
     atom    5 type  1   force =    -0.00661931    0.00292819    0.00025994
     atom    6 type  1   force =     0.00654061   -0.00280277   -0.00011904
     atom    7 type  1   force =     0.00627526   -0.00298450   -0.00017154
     atom    8 type  1   force =     0.00655648   -0.00281347    0.00000066

     Total force =     0.020125     Total SCF correction =     0.000607


     Computing stress (Cartesian axis) and pressure

          total   stress  (Ry/bohr**3)                   (kbar)     P=        0.00
   0.00011130  -0.00005477   0.00000023           16.37       -8.06        0.03
  -0.00005477   0.00006774  -0.00000024           -8.06        9.96       -0.04
   0.00000023  -0.00000024  -0.00017902            0.03       -0.04      -26.33


     BFGS Geometry Optimization

     number of scf cycles    =   1
     number of bfgs steps    =   0

     enthalpy new            =     -91.1606818503 Ry

     new trust radius        =       0.0207080057 bohr
     new conv_thr            =       0.0000010000 Ry

     new unit-cell volume =    534.81544 a.u.^3 (    79.25147 Ang^3 )
     density =      2.01147 g/cm^3

CELL_PARAMETERS (bohr)
  13.193455049  -0.435720313   0.002067694
  -0.142385153   8.722609146   0.004725671
   0.001229115   0.000371085   4.649788619

ATOMIC_POSITIONS (crystal)
C             0.7143973500        0.7158870102        0.2790551398
C             0.9644779699        0.4660396602        0.7792020028
C             0.5472382403       -0.1170094166        0.2787894311
C             0.2144230768        0.2159180513        0.2790456359
C             0.4644199548        0.9659393268        0.7787685468
C             0.7972171999        0.6329647955        0.7791096073
C             0.0472838157        0.3831079499        1.2791923992
C             0.2972123925        0.1329376228        0.7790062371



     Writing output data file ./pp.save/
     NEW-OLD atomic charge density approx. for the potential
     extrapolated charge   31.99930, renormalised to   32.00000

     total cpu time spent up to now is        5.3 secs

     Self-consistent Calculation

     iteration #  1     ecut=    40.00 Ry     beta= 0.50
     Davidson diagonalization with overlap
     ethr =  1.00E-06,  avg # of iterations =  4.2

     Threshold (ethr) on eigenvalues was too large:
     Diagonalizing with lowered threshold

     Davidson diagonalization with overlap
     ethr =  1.94E-08,  avg # of iterations =  2.4

     total cpu time spent up to now is        7.7 secs

     total energy              =     -91.16112398 Ry
     Harris-Foulkes estimate   =     -91.16185781 Ry
     estimated scf accuracy    <       0.00000597 Ry

     iteration #  2     ecut=    40.00 Ry     beta= 0.50
     Davidson diagonalization with overlap
     ethr =  1.86E-08,  avg # of iterations =  2.0

     total cpu time spent up to now is        8.3 secs

     total energy              =     -91.16112574 Ry
     Harris-Foulkes estimate   =     -91.16112456 Ry
     estimated scf accuracy    <       0.00000122 Ry

     iteration #  3     ecut=    40.00 Ry     beta= 0.50
     Davidson diagonalization with overlap
     ethr =  3.83E-09,  avg # of iterations =  2.8

     total cpu time spent up to now is        8.9 secs

     End of self-consistent calculation

          k = 0.0000 0.0000 0.0000 (  2279 PWs)   bands (ev):

   -13.7638 -12.2278 -12.2276  -8.4883  -7.3729  -1.6322  -1.6320  -1.2522
    -0.5883  -0.2799  -0.2793   0.7706   0.7707   2.7380   2.8261   3.1436
     7.2340   9.3526  13.1165  13.2024

          k =-0.0001-0.0004 0.7077 (  2287 PWs)   bands (ev):

   -12.6543 -11.1468 -11.1466  -7.5426  -6.5787  -3.9392  -3.1747  -3.1746
    -0.8823  -0.8821  -0.4446   0.0286   0.7243   0.9787   0.9803   4.4995
     6.7824  10.7702  11.0064  11.0087

          k = 0.0002 0.0008-1.4154 (  2298 PWs)   bands (ev):

    -9.4453  -9.4453  -8.4238  -8.4233  -7.4287  -7.4286  -4.7475  -4.7475
    -3.0965  -3.0964  -0.6223  -0.6222   3.3492   3.3513   3.4924   3.4924
     7.3032   7.3067   8.3973   8.3978

          k =-0.0249-0.7549 0.0001 (  2296 PWs)   bands (ev):

   -13.3084 -13.3067 -10.5147 -10.5143  -4.8944  -4.8936  -1.6572  -1.6554
    -0.2189  -0.2174   1.4213   1.4234   2.0439   2.0449   2.2890   2.2895
     9.6195   9.6212  12.9412  12.9424

          k =-0.0251-0.7553 0.7078 (  2283 PWs)   bands (ev):

   -12.2105 -12.2088  -9.4746  -9.4742  -4.6853  -4.6840  -3.1517  -3.1505
    -1.6315  -1.6310  -0.3426  -0.3402   0.7690   0.7703   3.4408   3.4415
     8.5459   8.5479  13.1633  13.1643

          k =-0.0247-0.7542-1.4154 (  2276 PWs)   bands (ev):

    -9.0588  -9.0579  -9.0566  -9.0557  -6.2446  -6.2442  -6.2433  -6.2427
    -1.6178  -1.6172  -1.6142  -1.6135   3.1335   3.1351   3.1364   3.1383
     8.2491   8.2497   8.2504   8.2509

          k =-0.4991-0.0081 0.0001 (  2274 PWs)   bands (ev):

   -13.3715 -13.3697 -10.4254 -10.4251  -4.9052  -4.9044  -1.0835  -1.0822
    -0.2281  -0.2265   1.4102   1.4123   1.4771   1.4777   2.0551   2.0560
     9.6400   9.6415  10.5878  10.5886

          k =-0.4992-0.0085 0.7078 (  2292 PWs)   bands (ev):

   -12.2687 -12.2668  -9.3938  -9.3934  -4.7049  -4.7037  -3.1669  -3.1656
    -1.5987  -1.5982   0.1948   0.1969   0.7614   0.7628   2.6992   2.6997
     8.7632   8.7656  11.9322  11.9373

          k =-0.4989-0.0074-1.4153 (  2278 PWs)   bands (ev):

    -9.1001  -9.0992  -9.0979  -9.0969  -6.1881  -6.1877  -6.1868  -6.1862
    -1.6234  -1.6226  -1.6197  -1.6191   3.4135   3.4155   3.4165   3.4179
     7.8184   7.8194   7.8201   7.8211

          k =-0.5240-0.7631 0.0002 (  2304 PWs)   bands (ev):

   -13.6473 -12.2677 -12.2676  -8.5464  -7.4193  -2.3081  -1.6009  -1.6008
    -0.5725   0.0879   0.0886   0.7657   0.7658   2.7307   2.8229   3.6432
     7.8496  12.1914  12.1946  12.9900

          k =-0.5242-0.7635 0.7079 (  2285 PWs)   bands (ev):

   -12.5468 -11.1836 -11.1835  -7.5945  -6.6073  -3.9045  -3.1862  -3.1858
    -0.9687  -0.8614  -0.8614  -0.4645   0.7127   1.3244   1.3262   4.9788
     6.8452  11.0450  11.0470  13.5859

          k =-0.5238-0.7623-1.4152 (  2278 PWs)   bands (ev):

    -9.3636  -9.3635  -8.4549  -8.4549  -7.4528  -7.4523  -4.7847  -4.7846
    -3.1246  -3.1246  -0.6069  -0.6069   2.7481   2.7482   3.6218   3.6246
     7.6094   7.6126   8.8030   8.8033

     the Fermi energy is     5.2253 ev

!    total energy              =     -91.16112602 Ry
     Harris-Foulkes estimate   =     -91.16112594 Ry
     estimated scf accuracy    <       0.00000034 Ry

     The total energy is the sum of the following terms:

     one-electron contribution =     -41.48623432 Ry
     hartree contribution      =      35.04664033 Ry
     xc contribution           =     -27.97708403 Ry
     ewald contribution        =     -56.74491326 Ry
     smearing contrib. (-TS)   =       0.00046527 Ry

     convergence has been achieved in   3 iterations

     Forces acting on atoms (cartesian axes, Ry/au):

     atom    1 type  1   force =     0.00387048   -0.00299662   -0.00001268
     atom    2 type  1   force =     0.00355193   -0.00303567   -0.00014587
     atom    3 type  1   force =    -0.00388894    0.00303027    0.00016511
     atom    4 type  1   force =     0.00367971   -0.00290815   -0.00002309
     atom    5 type  1   force =     0.00381699   -0.00317863    0.00030730
     atom    6 type  1   force =    -0.00360313    0.00308068   -0.00013230
     atom    7 type  1   force =    -0.00370855    0.00285312   -0.00011823
     atom    8 type  1   force =    -0.00371849    0.00315500   -0.00004023

     Total force =     0.013605     Total SCF correction =     0.001212


     Computing stress (Cartesian axis) and pressure

          total   stress  (Ry/bohr**3)                   (kbar)     P=        3.18
   0.00001063   0.00001701  -0.00000022            1.56        2.50       -0.03
   0.00001701   0.00002185   0.00000012            2.50        3.21        0.02
  -0.00000022   0.00000012   0.00003233           -0.03        0.02        4.76


     number of scf cycles    =   2
     number of bfgs steps    =   1

     enthalpy old            =     -91.1606818503 Ry
     enthalpy new            =     -91.1610896594 Ry

     CASE: enthalpy_new < enthalpy_old

     new trust radius        =       0.0034484270 bohr
     new conv_thr            =       0.0000000389 Ry

     new unit-cell volume =    535.48589 a.u.^3 (    79.35082 Ang^3 )
     density =      2.00895 g/cm^3

CELL_PARAMETERS (bohr)
  13.198336360  -0.432741761   0.002017447
  -0.140316920   8.727171056   0.004744103
   0.001211723   0.000380393   4.651407598

ATOMIC_POSITIONS (crystal)
C             0.7145930648        0.7156508555        0.2790516607
C             0.9646547577        0.4657971358        0.7791763553
C             0.5470419357       -0.1167710292        0.2788214260
C             0.2146077054        0.2156890792        0.2790407801
C             0.4646114576        0.9656859444        0.7788229455
C             0.7970378785        0.6332109109        0.7790859889
C             0.0470968084        0.3833321284        1.2791704243
C             0.2970263918        0.1331899750        0.7789994193



     Writing output data file ./pp.save/
     NEW-OLD atomic charge density approx. for the potential
     extrapolated charge   32.04007, renormalised to   32.00000

     total cpu time spent up to now is        9.0 secs

     Self-consistent Calculation

     iteration #  1     ecut=    40.00 Ry     beta= 0.50
     Davidson diagonalization with overlap
     ethr =  1.00E-06,  avg # of iterations =  3.2

     total cpu time spent up to now is        9.9 secs

     total energy              =     -91.16111675 Ry
     Harris-Foulkes estimate   =     -91.11892350 Ry
     estimated scf accuracy    <       0.00004112 Ry

     iteration #  2     ecut=    40.00 Ry     beta= 0.50
     Davidson diagonalization with overlap
     ethr =  1.28E-07,  avg # of iterations =  3.0

     total cpu time spent up to now is       10.7 secs

     total energy              =     -91.16116797 Ry
     Harris-Foulkes estimate   =     -91.16117423 Ry
     estimated scf accuracy    <       0.00001686 Ry

     iteration #  3     ecut=    40.00 Ry     beta= 0.50
     Davidson diagonalization with overlap
     ethr =  5.27E-08,  avg # of iterations =  1.0

     total cpu time spent up to now is       11.1 secs

     total energy              =     -91.16116653 Ry
     Harris-Foulkes estimate   =     -91.16116896 Ry
     estimated scf accuracy    <       0.00000447 Ry

     iteration #  4     ecut=    40.00 Ry     beta= 0.50
     Davidson diagonalization with overlap
     ethr =  1.40E-08,  avg # of iterations =  2.0

     total cpu time spent up to now is       11.7 secs

     total energy              =     -91.16116706 Ry
     Harris-Foulkes estimate   =     -91.16116722 Ry
     estimated scf accuracy    <       0.00000033 Ry

     iteration #  5     ecut=    40.00 Ry     beta= 0.50
     Davidson diagonalization with overlap
     ethr =  1.04E-09,  avg # of iterations =  2.2

     total cpu time spent up to now is       12.3 secs

     End of self-consistent calculation

          k = 0.0000 0.0000 0.0000 (  2279 PWs)   bands (ev):

   -13.7697 -12.2341 -12.2340  -8.5107  -7.3508  -1.6167  -1.6167  -1.2618
    -0.6247  -0.2900  -0.2895   0.7254   0.7255   2.6719   2.8668   3.1111
     7.2601   9.3392  13.1052  13.1678

          k =-0.0001-0.0004 0.7075 (  2287 PWs)   bands (ev):

   -12.6615 -11.1544 -11.1542  -7.5679  -6.5555  -3.9667  -3.1904  -3.1901
    -0.8868  -0.8866  -0.4945   0.0200   0.7544   0.9699   0.9715   4.4665
     6.8008  10.7566  10.9907  10.9927

          k = 0.0002 0.0008-1.4149 (  2298 PWs)   bands (ev):

    -9.4550  -9.4550  -8.4280  -8.4278  -7.4514  -7.4510  -4.7817  -4.7817
    -3.0784  -3.0783  -0.6193  -0.6192   3.3500   3.3524   3.4899   3.4899
     7.2712   7.2741   8.3638   8.3641

          k =-0.0247-0.7545 0.0001 (  2296 PWs)   bands (ev):

   -13.3141 -13.3138 -10.5214 -10.5211  -4.8852  -4.8849  -1.6636  -1.6633
    -0.2568  -0.2566   1.4513   1.4521   1.9871   1.9876   2.2672   2.2675
     9.6324   9.6331  12.9194  12.9208

          k =-0.0249-0.7549 0.7075 (  2283 PWs)   bands (ev):

   -12.2174 -12.2171  -9.4826  -9.4823  -4.6837  -4.6834  -3.1732  -3.1729
    -1.6576  -1.6571  -0.3487  -0.3473   0.7762   0.7768   3.4232   3.4237
     8.5424   8.5442  13.1420  13.1423

          k =-0.0245-0.7538-1.4149 (  2276 PWs)   bands (ev):

    -9.0673  -9.0669  -9.0661  -9.0657  -6.2639  -6.2638  -6.2628  -6.2627
    -1.6132  -1.6129  -1.6104  -1.6103   3.1328   3.1343   3.1351   3.1361
     8.2148   8.2153   8.2163   8.2164

          k =-0.4989-0.0080 0.0001 (  2274 PWs)   bands (ev):

   -13.3768 -13.3765 -10.4327 -10.4324  -4.8959  -4.8956  -1.0924  -1.0918
    -0.2658  -0.2657   1.4400   1.4409   1.4610   1.4614   1.9980   1.9985
     9.6480   9.6486  10.5720  10.5729

          k =-0.4990-0.0084 0.7076 (  2292 PWs)   bands (ev):

   -12.2752 -12.2749  -9.4023  -9.4019  -4.7034  -4.7030  -3.1880  -3.1878
    -1.6250  -1.6245   0.1867   0.1884   0.7687   0.7693   2.6855   2.6860
     8.7594   8.7612  11.9163  11.9213

          k =-0.4987-0.0072-1.4148 (  2278 PWs)   bands (ev):

    -9.1084  -9.1081  -9.1072  -9.1070  -6.2077  -6.2076  -6.2066  -6.2065
    -1.6185  -1.6184  -1.6158  -1.6157   3.4133   3.4145   3.4157   3.4167
     7.7864   7.7866   7.7875   7.7877

          k =-0.5237-0.7626 0.0002 (  2304 PWs)   bands (ev):

   -13.6539 -12.2737 -12.2737  -8.5684  -7.3971  -2.3137  -1.5855  -1.5855
    -0.6090   0.0760   0.0766   0.7206   0.7206   2.6647   2.8636   3.6069
     7.8775  12.1714  12.1741  12.9919

          k =-0.5238-0.7629 0.7077 (  2285 PWs)   bands (ev):

   -12.5546 -11.1910 -11.1908  -7.6194  -6.5839  -3.9325  -3.2019  -3.2018
    -0.9741  -0.8659  -0.8656  -0.5143   0.7427   1.3141   1.3158   4.9422
     6.8619  11.0306  11.0328  13.5666

          k =-0.5234-0.7618-1.4147 (  2278 PWs)   bands (ev):

    -9.3737  -9.3737  -8.4592  -8.4588  -7.4750  -7.4749  -4.8185  -4.8185
    -3.1066  -3.1066  -0.6040  -0.6039   2.7465   2.7466   3.6218   3.6242
     7.5759   7.5796   8.7667   8.7669

     the Fermi energy is     5.1885 ev

!    total energy              =     -91.16116715 Ry
     Harris-Foulkes estimate   =     -91.16116716 Ry
     estimated scf accuracy    <       0.00000003 Ry

     The total energy is the sum of the following terms:

     one-electron contribution =     -41.58782224 Ry
     hartree contribution      =      35.08227961 Ry
     xc contribution           =     -27.97250230 Ry
     ewald contribution        =     -56.68359015 Ry
     smearing contrib. (-TS)   =       0.00046794 Ry

     convergence has been achieved in   5 iterations

     Forces acting on atoms (cartesian axes, Ry/au):

     atom    1 type  1   force =    -0.00253189    0.00169551   -0.00007157
     atom    2 type  1   force =    -0.00254115    0.00149226   -0.00012792
     atom    3 type  1   force =     0.00258038   -0.00172633    0.00022744
     atom    4 type  1   force =    -0.00247304    0.00164004   -0.00004958
     atom    5 type  1   force =    -0.00266403    0.00161658    0.00015788
     atom    6 type  1   force =     0.00258864   -0.00152401   -0.00004837
     atom    7 type  1   force =     0.00241108   -0.00164365   -0.00010998
     atom    8 type  1   force =     0.00263000   -0.00155040    0.00002210

     Total force =     0.008550     Total SCF correction =     0.000244


     Computing stress (Cartesian axis) and pressure

          total   stress  (Ry/bohr**3)                   (kbar)     P=        1.24
  -0.00002002   0.00003633   0.00000010           -2.95        5.34        0.01
   0.00003633   0.00000613  -0.00000010            5.34        0.90       -0.01
   0.00000010  -0.00000010   0.00003923            0.01       -0.01        5.77


     number of scf cycles    =   3
     number of bfgs steps    =   2

     enthalpy old            =     -91.1610896594 Ry
     enthalpy new            =     -91.1611307445 Ry

     CASE: enthalpy_new < enthalpy_old

     new trust radius        =       0.0045579205 bohr
     new conv_thr            =       0.0000000100 Ry

     new unit-cell volume =    535.96085 a.u.^3 (    79.42120 Ang^3 )
     density =      2.00717 g/cm^3

CELL_PARAMETERS (bohr)
  13.193757917  -0.422728073   0.002022124
  -0.133584299   8.729024178   0.004742121
   0.001212534   0.000377781   4.655988458

ATOMIC_POSITIONS (crystal)
C             0.7145481373        0.7156843779        0.2790407551
C             0.9646026045        0.4658134401        0.7791494766
C             0.5470888988       -0.1168056634        0.2788632845
C             0.2145618927        0.2157209521        0.2790324312
C             0.4645585656        0.9657073302        0.7788631323
C             0.7970913525        0.6331936277        0.7790716072
C             0.0471389054        0.3832980163        1.2791479639
C             0.2970796434        0.1331729191        0.7790003491



     Writing output data file ./pp.save/
     NEW-OLD atomic charge density approx. for the potential
     extrapolated charge   32.02836, renormalised to   32.00000

     total cpu time spent up to now is       12.4 secs

     Self-consistent Calculation

     iteration #  1     ecut=    40.00 Ry     beta= 0.50
     Davidson diagonalization with overlap
     ethr =  1.00E-06,  avg # of iterations =  2.0

     Threshold (ethr) on eigenvalues was too large:
     Diagonalizing with lowered threshold

     Davidson diagonalization with overlap
     ethr =  5.02E-08,  avg # of iterations =  2.6

     total cpu time spent up to now is       13.6 secs

     total energy              =     -91.16117976 Ry
     Harris-Foulkes estimate   =     -91.13120815 Ry
     estimated scf accuracy    <       0.00001686 Ry

     iteration #  2     ecut=    40.00 Ry     beta= 0.50
     Davidson diagonalization with overlap
     ethr =  5.27E-08,  avg # of iterations =  2.7

     total cpu time spent up to now is       14.3 secs

     total energy              =     -91.16120161 Ry
     Harris-Foulkes estimate   =     -91.16120446 Ry
     estimated scf accuracy    <       0.00000797 Ry

     iteration #  3     ecut=    40.00 Ry     beta= 0.50
     Davidson diagonalization with overlap
     ethr =  2.49E-08,  avg # of iterations =  1.0

     total cpu time spent up to now is       14.8 secs

     total energy              =     -91.16120043 Ry
     Harris-Foulkes estimate   =     -91.16120192 Ry
     estimated scf accuracy    <       0.00000240 Ry

     iteration #  4     ecut=    40.00 Ry     beta= 0.50
     Davidson diagonalization with overlap
     ethr =  7.52E-09,  avg # of iterations =  2.0

     total cpu time spent up to now is       15.4 secs

     total energy              =     -91.16120090 Ry
     Harris-Foulkes estimate   =     -91.16120092 Ry
     estimated scf accuracy    <       0.00000005 Ry

     iteration #  5     ecut=    40.00 Ry     beta= 0.50
     Davidson diagonalization with overlap
     ethr =  1.71E-10,  avg # of iterations =  2.5

     total cpu time spent up to now is       16.1 secs

     total energy              =     -91.16120091 Ry
     Harris-Foulkes estimate   =     -91.16120091 Ry
     estimated scf accuracy    <       0.00000001 Ry

     iteration #  6     ecut=    40.00 Ry     beta= 0.50
     Davidson diagonalization with overlap
     ethr =  3.84E-11,  avg # of iterations =  2.0

     total cpu time spent up to now is       16.7 secs

     End of self-consistent calculation

          k = 0.0000 0.0000 0.0000 (  2279 PWs)   bands (ev):

   -13.7771 -12.2394 -12.2394  -8.4973  -7.3693  -1.6200  -1.6200  -1.2721
    -0.6482  -0.2929  -0.2924   0.7087   0.7087   2.6694   2.8500   3.1247
     7.2436   9.3273  13.1010  13.1150

          k =-0.0001-0.0004 0.7068 (  2287 PWs)   bands (ev):

   -12.6711 -11.1618 -11.1616  -7.5557  -6.5811  -3.9795  -3.2091  -3.2089
    -0.8847  -0.8847  -0.4923   0.0065   0.7324   0.9631   0.9647   4.4773
     6.7766  10.7416  10.9748  10.9769

          k = 0.0002 0.0008-1.4135 (  2298 PWs)   bands (ev):

    -9.4717  -9.4717  -8.4478  -8.4476  -7.4545  -7.4543  -4.7734  -4.7734
    -3.0969  -3.0969  -0.6211  -0.6211   3.3314   3.3337   3.4678   3.4678
     7.2669   7.2699   8.3662   8.3665

          k =-0.0242-0.7543 0.0001 (  2296 PWs)   bands (ev):

   -13.3214 -13.3213 -10.5225 -10.5223  -4.8891  -4.8890  -1.6692  -1.6689
    -0.2786  -0.2785   1.4416   1.4420   1.9789   1.9792   2.2684   2.2686
     9.6208   9.6211  12.9028  12.9042

          k =-0.0243-0.7547 0.7068 (  2283 PWs)   bands (ev):

   -12.2269 -12.2267  -9.4859  -9.4857  -4.7018  -4.7016  -3.1768  -3.1766
    -1.6688  -1.6685  -0.3577  -0.3563   0.7704   0.7707   3.4188   3.4192
     8.5272   8.5289  13.1281  13.1284

          k =-0.0239-0.7536-1.4135 (  2276 PWs)   bands (ev):

    -9.0842  -9.0839  -9.0833  -9.0830  -6.2668  -6.2667  -6.2659  -6.2658
    -1.6187  -1.6186  -1.6165  -1.6164   3.1137   3.1150   3.1160   3.1168
     8.2126   8.2130   8.2139   8.2140

          k =-0.4991-0.0076 0.0001 (  2274 PWs)   bands (ev):

   -13.3837 -13.3836 -10.4344 -10.4342  -4.8997  -4.8996  -1.1005  -1.1000
    -0.2877  -0.2876   1.4307   1.4311   1.4651   1.4653   1.9898   1.9901
     9.6387   9.6390  10.5595  10.5603

          k =-0.4992-0.0080 0.7069 (  2292 PWs)   bands (ev):

   -12.2842 -12.2841  -9.4061  -9.4059  -4.7214  -4.7212  -3.1915  -3.1912
    -1.6364  -1.6361   0.1753   0.1770   0.7630   0.7633   2.6846   2.6850
     8.7432   8.7450  11.9000  11.9050

          k =-0.4988-0.0069-1.4134 (  2278 PWs)   bands (ev):

    -9.1250  -9.1248  -9.1241  -9.1239  -6.2110  -6.2109  -6.2101  -6.2101
    -1.6241  -1.6240  -1.6219  -1.6219   3.3930   3.3941   3.3954   3.3961
     7.7851   7.7853   7.7863   7.7865

          k =-0.5232-0.7620 0.0002 (  2304 PWs)   bands (ev):

   -13.6621 -12.2788 -12.2788  -8.5546  -7.4151  -2.3194  -1.5892  -1.5891
    -0.6326   0.0716   0.0720   0.7038   0.7039   2.6622   2.8468   3.6184
     7.8550  12.1636  12.1659  12.9827

          k =-0.5234-0.7624 0.7070 (  2285 PWs)   bands (ev):

   -12.5649 -11.1982 -11.1980  -7.6070  -6.6090  -3.9457  -3.2206  -3.2204
    -0.9830  -0.8641  -0.8639  -0.5120   0.7208   1.3057   1.3074   4.9509
     6.8351  11.0168  11.0189  13.5557

          k =-0.5230-0.7612-1.4133 (  2278 PWs)   bands (ev):

    -9.3910  -9.3909  -8.4787  -8.4784  -7.4781  -7.4779  -4.8101  -4.8101
    -3.1248  -3.1248  -0.6060  -0.6059   2.7280   2.7280   3.6014   3.6039
     7.5720   7.5754   8.7673   8.7675

     the Fermi energy is     5.1971 ev

!    total energy              =     -91.16120091 Ry
     Harris-Foulkes estimate   =     -91.16120091 Ry
     estimated scf accuracy    <          1.3E-09 Ry

     The total energy is the sum of the following terms:

     one-electron contribution =     -41.71685560 Ry
     hartree contribution      =      35.13666067 Ry
     xc contribution           =     -27.97125115 Ry
     ewald contribution        =     -56.61022436 Ry
     smearing contrib. (-TS)   =       0.00046954 Ry

     convergence has been achieved in   6 iterations

     Forces acting on atoms (cartesian axes, Ry/au):

     atom    1 type  1   force =    -0.00021760    0.00022275   -0.00003830
     atom    2 type  1   force =    -0.00023784    0.00006531   -0.00009407
     atom    3 type  1   force =     0.00024359   -0.00023331    0.00017144
     atom    4 type  1   force =    -0.00018208    0.00018775   -0.00002511
     atom    5 type  1   force =    -0.00030245    0.00014709    0.00013029
     atom    6 type  1   force =     0.00025311   -0.00008336   -0.00004806
     atom    7 type  1   force =     0.00015332   -0.00020298   -0.00011241
     atom    8 type  1   force =     0.00028994   -0.00010324    0.00001621

     Total force =     0.000870     Total SCF correction =     0.000036


     Computing stress (Cartesian axis) and pressure

          total   stress  (Ry/bohr**3)                   (kbar)     P=        0.78
   0.00001846   0.00001101   0.00000002            2.72        1.62        0.00
   0.00001101   0.00002502  -0.00000006            1.62        3.68       -0.01
   0.00000002  -0.00000006  -0.00002760            0.00       -0.01       -4.06


     number of scf cycles    =   4
     number of bfgs steps    =   3

     enthalpy old            =     -91.1611307445 Ry
     enthalpy new            =     -91.1611644750 Ry

     CASE: enthalpy_new < enthalpy_old

     new trust radius        =       0.0042296353 bohr
     new conv_thr            =       0.0000000100 Ry

     new unit-cell volume =    536.37828 a.u.^3 (    79.48306 Ang^3 )
     density =      2.00561 g/cm^3

CELL_PARAMETERS (bohr)
  13.198625155  -0.415921531   0.002026453
  -0.128924970   8.735386762   0.004726507
   0.001214775   0.000371234   4.654386252

ATOMIC_POSITIONS (crystal)
C             0.7145215306        0.7157093025        0.2790282825
C             0.9645703324        0.4658137410        0.7791182081
C             0.5471182107       -0.1168320995        0.2789170615
C             0.2145367344        0.2157420223        0.2790235722
C             0.4645222522        0.9657177621        0.7789091410
C             0.7971251442        0.6331912248        0.7790544698
C             0.0471602560        0.3832740696        1.2791147673
C             0.2971155394        0.1331689772        0.7790034977



     Writing output data file ./pp.save/
     NEW-OLD atomic charge density approx. for the potential
     extrapolated charge   32.02490, renormalised to   32.00000

     total cpu time spent up to now is       16.8 secs

     Self-consistent Calculation

     iteration #  1     ecut=    40.00 Ry     beta= 0.50
     Davidson diagonalization with overlap
     ethr =  1.00E-06,  avg # of iterations =  2.0

     Threshold (ethr) on eigenvalues was too large:
     Diagonalizing with lowered threshold

     Davidson diagonalization with overlap
     ethr =  1.76E-08,  avg # of iterations =  1.6

     total cpu time spent up to now is       17.9 secs

     total energy              =     -91.16120881 Ry
     Harris-Foulkes estimate   =     -91.13472903 Ry
     estimated scf accuracy    <       0.00000555 Ry

     iteration #  2     ecut=    40.00 Ry     beta= 0.50
     Davidson diagonalization with overlap
     ethr =  1.73E-08,  avg # of iterations =  3.0

     total cpu time spent up to now is       18.8 secs

     total energy              =     -91.16122448 Ry
     Harris-Foulkes estimate   =     -91.16122631 Ry
     estimated scf accuracy    <       0.00000623 Ry

     iteration #  3     ecut=    40.00 Ry     beta= 0.50
     Davidson diagonalization with overlap
     ethr =  1.73E-08,  avg # of iterations =  1.0

     total cpu time spent up to now is       19.3 secs

     total energy              =     -91.16122290 Ry
     Harris-Foulkes estimate   =     -91.16122463 Ry
     estimated scf accuracy    <       0.00000260 Ry

     iteration #  4     ecut=    40.00 Ry     beta= 0.50
     Davidson diagonalization with overlap
     ethr =  8.11E-09,  avg # of iterations =  2.0

     total cpu time spent up to now is       20.0 secs

     total energy              =     -91.16122350 Ry
     Harris-Foulkes estimate   =     -91.16122357 Ry
     estimated scf accuracy    <       0.00000018 Ry

     iteration #  5     ecut=    40.00 Ry     beta= 0.50
     Davidson diagonalization with overlap
     ethr =  5.59E-10,  avg # of iterations =  1.8

     total cpu time spent up to now is       20.6 secs

     total energy              =     -91.16122350 Ry
     Harris-Foulkes estimate   =     -91.16122351 Ry
     estimated scf accuracy    <       0.00000004 Ry

     iteration #  6     ecut=    40.00 Ry     beta= 0.50
     Davidson diagonalization with overlap
     ethr =  1.17E-10,  avg # of iterations =  1.1

     total cpu time spent up to now is       21.1 secs

     total energy              =     -91.16122349 Ry
     Harris-Foulkes estimate   =     -91.16122350 Ry
     estimated scf accuracy    <       0.00000001 Ry

     iteration #  7     ecut=    40.00 Ry     beta= 0.50
     Davidson diagonalization with overlap
     ethr =  3.43E-11,  avg # of iterations =  2.0

     total cpu time spent up to now is       21.9 secs

     End of self-consistent calculation

          k = 0.0000 0.0000 0.0000 (  2279 PWs)   bands (ev):

   -13.7883 -12.2516 -12.2515  -8.5089  -7.3835  -1.6335  -1.6335  -1.2870
    -0.6506  -0.3021  -0.3018   0.7068   0.7069   2.6690   2.8353   3.1179
     7.2333   9.3124  13.0911  13.1227

          k =-0.0001-0.0004 0.7070 (  2287 PWs)   bands (ev):

   -12.6816 -11.1732 -11.1730  -7.5666  -6.5935  -3.9860  -3.2155  -3.2154
    -0.8966  -0.8965  -0.4965  -0.0074   0.7195   0.9546   0.9561   4.4714
     6.7670  10.7281  10.9705  10.9726

          k = 0.0002 0.0008-1.4140 (  2298 PWs)   bands (ev):

    -9.4800  -9.4800  -8.4565  -8.4562  -7.4641  -7.4640  -4.7818  -4.7818
    -3.1098  -3.1098  -0.6334  -0.6334   3.3241   3.3263   3.4566   3.4567
     7.2628   7.2658   8.3628   8.3630

          k =-0.0238-0.7538 0.0001 (  2296 PWs)   bands (ev):

   -13.3336 -13.3335 -10.5341 -10.5339  -4.9025  -4.9024  -1.6784  -1.6780
    -0.2812  -0.2809   1.4273   1.4277   1.9779   1.9783   2.2556   2.2559
     9.6113   9.6117  12.8786  12.8799

          k =-0.0239-0.7542 0.7071 (  2283 PWs)   bands (ev):

   -12.2382 -12.2380  -9.4967  -9.4965  -4.7111  -4.7108  -3.1859  -3.1858
    -1.6744  -1.6740  -0.3660  -0.3646   0.7584   0.7587   3.4069   3.4074
     8.5215   8.5230  13.1233  13.1235

          k =-0.0235-0.7530-1.4140 (  2276 PWs)   bands (ev):

    -9.0930  -9.0927  -9.0923  -9.0921  -6.2755  -6.2755  -6.2749  -6.2748
    -1.6305  -1.6304  -1.6290  -1.6289   3.1066   3.1075   3.1089   3.1095
     8.2060   8.2064   8.2071   8.2073

          k =-0.4989-0.0074 0.0001 (  2274 PWs)   bands (ev):

   -13.3952 -13.3951 -10.4469 -10.4467  -4.9129  -4.9128  -1.1133  -1.1129
    -0.2900  -0.2898   1.4165   1.4169   1.4577   1.4579   1.9887   1.9892
     9.6284   9.6287  10.5418  10.5426

          k =-0.4990-0.0077 0.7071 (  2292 PWs)   bands (ev):

   -12.2950 -12.2948  -9.4178  -9.4176  -4.7303  -4.7302  -3.2006  -3.2002
    -1.6424  -1.6420   0.1634   0.1650   0.7510   0.7515   2.6779   2.6783
     8.7352   8.7372  11.8842  11.8892

          k =-0.4986-0.0066-1.4139 (  2278 PWs)   bands (ev):

    -9.1334  -9.1331  -9.1327  -9.1325  -6.2204  -6.2203  -6.2197  -6.2196
    -1.6359  -1.6358  -1.6343  -1.6342   3.3840   3.3848   3.3862   3.3867
     7.7813   7.7815   7.7826   7.7828

          k =-0.5226-0.7611 0.0002 (  2304 PWs)   bands (ev):

   -13.6745 -12.2906 -12.2905  -8.5657  -7.4288  -2.3273  -1.6030  -1.6030
    -0.6352   0.0598   0.0600   0.7020   0.7021   2.6619   2.8321   3.6080
     7.8418  12.1471  12.1487  12.9769

          k =-0.5228-0.7615 0.7072 (  2285 PWs)   bands (ev):

   -12.5764 -11.2091 -11.2090  -7.6173  -6.6212  -3.9525  -3.2269  -3.2266
    -0.9901  -0.8762  -0.8761  -0.5159   0.7080   1.2946   1.2963   4.9415
     6.8266  11.0123  11.0143  13.5401

          k =-0.5224-0.7604-1.4138 (  2278 PWs)   bands (ev):

    -9.4001  -9.4001  -8.4870  -8.4868  -7.4875  -7.4872  -4.8180  -4.8180
    -3.1374  -3.1374  -0.6185  -0.6185   2.7224   2.7224   3.5917   3.5942
     7.5665   7.5697   8.7608   8.7610

     the Fermi energy is     5.1875 ev

!    total energy              =     -91.16122349 Ry
     Harris-Foulkes estimate   =     -91.16122349 Ry
     estimated scf accuracy    <          1.0E-10 Ry

     The total energy is the sum of the following terms:

     one-electron contribution =     -41.93675134 Ry
     hartree contribution      =      35.23705689 Ry
     xc contribution           =     -27.97405166 Ry
     ewald contribution        =     -56.48794968 Ry
     smearing contrib. (-TS)   =       0.00047230 Ry

     convergence has been achieved in   7 iterations

     Forces acting on atoms (cartesian axes, Ry/au):

     atom    1 type  1   force =     0.00047062   -0.00017489    0.00000438
     atom    2 type  1   force =     0.00035027   -0.00021813   -0.00008204
     atom    3 type  1   force =    -0.00050135    0.00021232    0.00007413
     atom    4 type  1   force =     0.00043215   -0.00015885    0.00000126
     atom    5 type  1   force =     0.00046309   -0.00026231    0.00012364
     atom    6 type  1   force =    -0.00038981    0.00023088   -0.00004535
     atom    7 type  1   force =    -0.00040917    0.00011604   -0.00007772
     atom    8 type  1   force =    -0.00041580    0.00025494    0.00000170

     Total force =     0.001369     Total SCF correction =     0.000002


     Computing stress (Cartesian axis) and pressure

          total   stress  (Ry/bohr**3)                   (kbar)     P=        2.01
   0.00002254   0.00000736  -0.00000008            3.32        1.08       -0.01
   0.00000736   0.00002620   0.00000001            1.08        3.85        0.00
  -0.00000008   0.00000001  -0.00000776           -0.01        0.00       -1.14


     number of scf cycles    =   5
     number of bfgs steps    =   4

     enthalpy old            =     -91.1611644750 Ry
     enthalpy new            =     -91.1611870301 Ry

     CASE: enthalpy_new < enthalpy_old

     new trust radius        =       0.0063397651 bohr
     new conv_thr            =       0.0000000100 Ry

     new unit-cell volume =    537.26457 a.u.^3 (    79.61439 Ang^3 )
     density =      2.00230 g/cm^3

CELL_PARAMETERS (bohr)
  13.206979272  -0.406401049   0.002011968
  -0.122392707   8.745248623   0.004715491
   0.001210627   0.000366983   4.653713678

ATOMIC_POSITIONS (crystal)
C             0.7145075378        0.7157277607        0.2790159798
C             0.9645424324        0.4658040889        0.7790725733
C             0.5471331517       -0.1168489362        0.2789834030
C             0.2145210693        0.2157585824        0.2790142517
C             0.4644978537        0.9657135408        0.7789775363
C             0.7971523425        0.6332000556        0.7790291650
C             0.0471730673        0.3832509544        1.2790698869
C             0.2971425453        0.1331789534        0.7790062039



     Writing output data file ./pp.save/
     NEW-OLD atomic charge density approx. for the potential
     extrapolated charge   32.05279, renormalised to   32.00000

     total cpu time spent up to now is       21.9 secs

     Self-consistent Calculation

     iteration #  1     ecut=    40.00 Ry     beta= 0.50
     Davidson diagonalization with overlap
     ethr =  1.00E-06,  avg # of iterations =  2.2

     Threshold (ethr) on eigenvalues was too large:
     Diagonalizing with lowered threshold

     Davidson diagonalization with overlap
     ethr =  9.76E-08,  avg # of iterations =  1.1

     total cpu time spent up to now is       23.2 secs

     total energy              =     -91.16118018 Ry
     Harris-Foulkes estimate   =     -91.10463743 Ry
     estimated scf accuracy    <       0.00003158 Ry

     iteration #  2     ecut=    40.00 Ry     beta= 0.50
     Davidson diagonalization with overlap
     ethr =  9.87E-08,  avg # of iterations =  3.0

     total cpu time spent up to now is       24.2 secs

     total energy              =     -91.16125505 Ry
     Harris-Foulkes estimate   =     -91.16126319 Ry
     estimated scf accuracy    <       0.00002550 Ry

     iteration #  3     ecut=    40.00 Ry     beta= 0.50
     Davidson diagonalization with overlap
     ethr =  7.97E-08,  avg # of iterations =  1.0

     total cpu time spent up to now is       24.7 secs

     total energy              =     -91.16124930 Ry
     Harris-Foulkes estimate   =     -91.16125578 Ry
     estimated scf accuracy    <       0.00000960 Ry

     iteration #  4     ecut=    40.00 Ry     beta= 0.50
     Davidson diagonalization with overlap
     ethr =  3.00E-08,  avg # of iterations =  2.0

     total cpu time spent up to now is       25.6 secs

     total energy              =     -91.16125151 Ry
     Harris-Foulkes estimate   =     -91.16125183 Ry
     estimated scf accuracy    <       0.00000070 Ry

     iteration #  5     ecut=    40.00 Ry     beta= 0.50
     Davidson diagonalization with overlap
     ethr =  2.20E-09,  avg # of iterations =  1.8

     total cpu time spent up to now is       26.3 secs

     total energy              =     -91.16125149 Ry
     Harris-Foulkes estimate   =     -91.16125156 Ry
     estimated scf accuracy    <       0.00000011 Ry

     iteration #  6     ecut=    40.00 Ry     beta= 0.50
     Davidson diagonalization with overlap
     ethr =  3.39E-10,  avg # of iterations =  2.0

     total cpu time spent up to now is       27.1 secs

     total energy              =     -91.16125151 Ry
     Harris-Foulkes estimate   =     -91.16125152 Ry
     estimated scf accuracy    <       0.00000002 Ry

     iteration #  7     ecut=    40.00 Ry     beta= 0.50
     Davidson diagonalization with overlap
     ethr =  5.67E-11,  avg # of iterations =  2.0

     total cpu time spent up to now is       28.0 secs

     End of self-consistent calculation

          k = 0.0000 0.0000 0.0000 (  2279 PWs)   bands (ev):

   -13.8046 -12.2694 -12.2693  -8.5278  -7.4026  -1.6535  -1.6535  -1.3095
    -0.6628  -0.3172  -0.3171   0.6943   0.6945   2.6568   2.8140   3.1036
     7.2164   9.2878  13.0690  13.1145

          k =-0.0001-0.0004 0.7071 (  2287 PWs)   bands (ev):

   -12.6975 -11.1906 -11.1904  -7.5850  -6.6118  -4.0001  -3.2307  -3.2306
    -0.9152  -0.9151  -0.5110  -0.0293   0.6999   0.9397   0.9412   4.4573
     6.7494  10.7045  10.9552  10.9572

          k = 0.0002 0.0008-1.4142 (  2298 PWs)   bands (ev):

    -9.4951  -9.4951  -8.4728  -8.4725  -7.4804  -7.4803  -4.7987  -4.7987
    -3.1285  -3.1285  -0.6524  -0.6524   3.3094   3.3115   3.4365   3.4366
     7.2492   7.2522   8.3495   8.3496

          k =-0.0232-0.7529 0.0001 (  2296 PWs)   bands (ev):

   -13.3512 -13.3511 -10.5513 -10.5512  -4.9220  -4.9219  -1.6926  -1.6923
    -0.2936  -0.2933   1.4062   1.4066   1.9657   1.9661   2.2342   2.2344
     9.5932   9.5935  12.8397  12.8409

          k =-0.0233-0.7533 0.7072 (  2283 PWs)   bands (ev):

   -12.2555 -12.2553  -9.5137  -9.5135  -4.7281  -4.7278  -3.2023  -3.2022
    -1.6890  -1.6887  -0.3801  -0.3787   0.7393   0.7395   3.3861   3.3866
     8.5063   8.5079  13.1054  13.1056

          k =-0.0229-0.7521-1.4142 (  2276 PWs)   bands (ev):

    -9.1089  -9.1087  -9.1086  -9.1084  -6.2915  -6.2914  -6.2911  -6.2910
    -1.6489  -1.6488  -1.6482  -1.6481   3.0922   3.0927   3.0944   3.0946
     8.1882   8.1885   8.1893   8.1894

          k =-0.4985-0.0070 0.0001 (  2274 PWs)   bands (ev):

   -13.4120 -13.4119 -10.4656 -10.4654  -4.9322  -4.9322  -1.1330  -1.1326
    -0.3023  -0.3021   1.3957   1.3960   1.4444   1.4446   1.9764   1.9768
     9.6090   9.6093  10.5129  10.5136

          k =-0.4987-0.0074 0.7072 (  2292 PWs)   bands (ev):

   -12.3114 -12.3113  -9.4360  -9.4358  -4.7470  -4.7469  -3.2167  -3.2164
    -1.6576  -1.6573   0.1442   0.1458   0.7320   0.7324   2.6647   2.6650
     8.7172   8.7191  11.8571  11.8620

          k =-0.4983-0.0062-1.4141 (  2278 PWs)   bands (ev):

    -9.1487  -9.1485  -9.1484  -9.1482  -6.2372  -6.2371  -6.2369  -6.2368
    -1.6541  -1.6540  -1.6534  -1.6533   3.3667   3.3672   3.3689   3.3691
     7.7680   7.7681   7.7692   7.7694

          k =-0.5217-0.7599 0.0002 (  2304 PWs)   bands (ev):

   -13.6925 -12.3077 -12.3077  -8.5837  -7.4473  -2.3395  -1.6236  -1.6235
    -0.6477   0.0409   0.0410   0.6897   0.6898   2.6499   2.8109   3.5884
     7.8203  12.1193  12.1199  12.9604

          k =-0.5218-0.7603 0.7073 (  2285 PWs)   bands (ev):

   -12.5940 -11.2260 -11.2258  -7.6349  -6.6391  -3.9672  -3.2419  -3.2416
    -1.0022  -0.8952  -0.8951  -0.5301   0.6887   1.2761   1.2777   4.9223
     6.8096  10.9966  10.9985  13.5127

          k =-0.5215-0.7591-1.4140 (  2278 PWs)   bands (ev):

    -9.4165  -9.4165  -8.5028  -8.5026  -7.5034  -7.5031  -4.8344  -4.8344
    -3.1557  -3.1557  -0.6378  -0.6378   2.7101   2.7101   3.5737   3.5762
     7.5505   7.5536   8.7430   8.7430

     the Fermi energy is     5.1680 ev

!    total energy              =     -91.16125151 Ry
     Harris-Foulkes estimate   =     -91.16125151 Ry
     estimated scf accuracy    <          1.3E-09 Ry

     The total energy is the sum of the following terms:

     one-electron contribution =     -42.24284499 Ry
     hartree contribution      =      35.37046546 Ry
     xc contribution           =     -27.97418683 Ry
     ewald contribution        =     -56.31516167 Ry
     smearing contrib. (-TS)   =       0.00047651 Ry

     convergence has been achieved in   7 iterations

     Forces acting on atoms (cartesian axes, Ry/au):

     atom    1 type  1   force =     0.00086633   -0.00038275    0.00002118
     atom    2 type  1   force =     0.00079464   -0.00039666   -0.00005347
     atom    3 type  1   force =    -0.00089068    0.00042625    0.00000842
     atom    4 type  1   force =     0.00083877   -0.00037319    0.00001471
     atom    5 type  1   force =     0.00088216   -0.00042888    0.00005255
     atom    6 type  1   force =    -0.00082919    0.00039744   -0.00001228
     atom    7 type  1   force =    -0.00081708    0.00034215   -0.00004089
     atom    8 type  1   force =    -0.00084494    0.00041565    0.00000978

     Total force =     0.002644     Total SCF correction =     0.000003


     Computing stress (Cartesian axis) and pressure

          total   stress  (Ry/bohr**3)                   (kbar)     P=        2.15
   0.00002004   0.00000839  -0.00000006            2.95        1.23       -0.01
   0.00000839   0.00002438   0.00000001            1.23        3.59        0.00
  -0.00000006   0.00000001  -0.00000056           -0.01        0.00       -0.08


     number of scf cycles    =   6
     number of bfgs steps    =   5

     enthalpy old            =     -91.1611870301 Ry
     enthalpy new            =     -91.1612149896 Ry

     CASE: enthalpy_new < enthalpy_old

     new trust radius        =       0.0095014410 bohr
     new conv_thr            =       0.0000000100 Ry

     new unit-cell volume =    538.57599 a.u.^3 (    79.80873 Ang^3 )
     density =      1.99742 g/cm^3

CELL_PARAMETERS (bohr)
  13.218375817  -0.391303413   0.002004076
  -0.112054307   8.759668367   0.004693364
   0.001209108   0.000357463   4.653136129

ATOMIC_POSITIONS (crystal)
C             0.7145019899        0.7157468588        0.2789992578
C             0.9645216092        0.4657816972        0.7790095599
C             0.5471415633       -0.1168659308        0.2790730613
C             0.2145152135        0.2157727469        0.2790020491
C             0.4644772884        0.9657038448        0.7790647050
C             0.7971733965        0.6332189771        0.7789985305
C             0.0471737182        0.3832289669        1.2790089061
C             0.2971652209        0.1331978391        0.7790129303



     Writing output data file ./pp.save/
     NEW-OLD atomic charge density approx. for the potential
     extrapolated charge   32.07792, renormalised to   32.00000

     total cpu time spent up to now is       28.0 secs

     Self-consistent Calculation

     iteration #  1     ecut=    40.00 Ry     beta= 0.50
     Davidson diagonalization with overlap
     ethr =  1.00E-06,  avg # of iterations =  2.5

     total cpu time spent up to now is       29.0 secs

     total energy              =     -91.16113469 Ry
     Harris-Foulkes estimate   =     -91.07672672 Ry
     estimated scf accuracy    <       0.00006829 Ry

     iteration #  2     ecut=    40.00 Ry     beta= 0.50
     Davidson diagonalization with overlap
     ethr =  2.13E-07,  avg # of iterations =  3.1

     total cpu time spent up to now is       30.3 secs

     total energy              =     -91.16129797 Ry
     Harris-Foulkes estimate   =     -91.16131576 Ry
     estimated scf accuracy    <       0.00005580 Ry

     iteration #  3     ecut=    40.00 Ry     beta= 0.50
     Davidson diagonalization with overlap
     ethr =  1.74E-07,  avg # of iterations =  1.0

     total cpu time spent up to now is       31.0 secs

     total energy              =     -91.16128525 Ry
     Harris-Foulkes estimate   =     -91.16129959 Ry
     estimated scf accuracy    <       0.00002107 Ry

     iteration #  4     ecut=    40.00 Ry     beta= 0.50
     Davidson diagonalization with overlap
     ethr =  6.58E-08,  avg # of iterations =  2.0

     total cpu time spent up to now is       31.9 secs

     total energy              =     -91.16129013 Ry
     Harris-Foulkes estimate   =     -91.16129107 Ry
     estimated scf accuracy    <       0.00000190 Ry

     iteration #  5     ecut=    40.00 Ry     beta= 0.50
     Davidson diagonalization with overlap
     ethr =  5.94E-09,  avg # of iterations =  1.9

     total cpu time spent up to now is       32.8 secs

     total energy              =     -91.16129015 Ry
     Harris-Foulkes estimate   =     -91.16129029 Ry
     estimated scf accuracy    <       0.00000019 Ry

     iteration #  6     ecut=    40.00 Ry     beta= 0.50
     Davidson diagonalization with overlap
     ethr =  6.04E-10,  avg # of iterations =  2.0

     total cpu time spent up to now is       33.8 secs

     total energy              =     -91.16129020 Ry
     Harris-Foulkes estimate   =     -91.16129022 Ry
     estimated scf accuracy    <       0.00000004 Ry

     iteration #  7     ecut=    40.00 Ry     beta= 0.50
     Davidson diagonalization with overlap
     ethr =  1.23E-10,  avg # of iterations =  2.0

     total cpu time spent up to now is       34.9 secs

     End of self-consistent calculation

          k = 0.0000 0.0000 0.0000 (  2279 PWs)   bands (ev):

   -13.8289 -12.2954 -12.2954  -8.5543  -7.4294  -1.6798  -1.6798  -1.3429
    -0.6846  -0.3394  -0.3393   0.6723   0.6724   2.6350   2.7869   3.0827
     7.1943   9.2511  13.0374  13.0974

          k =-0.0001-0.0004 0.7072 (  2287 PWs)   bands (ev):

   -12.7216 -11.2164 -11.2162  -7.6111  -6.6377  -4.0234  -3.2545  -3.2544
    -0.9410  -0.9408  -0.5344  -0.0619   0.6737   0.9178   0.9191   4.4367
     6.7249  10.6692  10.9323  10.9344

          k = 0.0002 0.0008-1.4144 (  2298 PWs)   bands (ev):

    -9.5186  -9.5185  -8.4976  -8.4972  -7.5054  -7.5054  -4.8238  -4.8238
    -3.1548  -3.1548  -0.6784  -0.6783   3.2876   3.2896   3.4064   3.4065
     7.2282   7.2312   8.3294   8.3294

          k =-0.0223-0.7516 0.0001 (  2296 PWs)   bands (ev):

   -13.3774 -13.3773 -10.5763 -10.5759  -4.9486  -4.9484  -1.7137  -1.7134
    -0.3159  -0.3154   1.3790   1.3797   1.9438   1.9447   2.2027   2.2032
     9.5688   9.5694  12.7820  12.7831

          k =-0.0224-0.7520 0.7073 (  2283 PWs)   bands (ev):

   -12.2813 -12.2811  -9.5384  -9.5380  -4.7531  -4.7528  -3.2272  -3.2270
    -1.7124  -1.7117  -0.4011  -0.3997   0.7130   0.7136   3.3555   3.3561
     8.4845   8.4860  13.0784  13.0787

          k =-0.0220-0.7509-1.4143 (  2276 PWs)   bands (ev):

    -9.1337  -9.1335  -9.1334  -9.1333  -6.3157  -6.3156  -6.3152  -6.3151
    -1.6748  -1.6748  -1.6743  -1.6742   3.0704   3.0706   3.0724   3.0728
     8.1611   8.1616   8.1622   8.1624

          k =-0.4981-0.0064 0.0001 (  2274 PWs)   bands (ev):

   -13.4368 -13.4367 -10.4925 -10.4921  -4.9586  -4.9584  -1.1622  -1.1618
    -0.3244  -0.3238   1.3687   1.3694   1.4251   1.4255   1.9542   1.9551
     9.5827   9.5833  10.4701  10.4708

          k =-0.4982-0.0068 0.7073 (  2292 PWs)   bands (ev):

   -12.3360 -12.3359  -9.4625  -9.4621  -4.7715  -4.7714  -3.2413  -3.2408
    -1.6817  -1.6810   0.1155   0.1171   0.7060   0.7067   2.6453   2.6458
     8.6913   8.6932  11.8167  11.8216

          k =-0.4979-0.0056-1.4143 (  2278 PWs)   bands (ev):

    -9.1726  -9.1724  -9.1723  -9.1721  -6.2627  -6.2627  -6.2622  -6.2621
    -1.6799  -1.6798  -1.6793  -1.6793   3.3410   3.3411   3.3428   3.3432
     7.7475   7.7477   7.7487   7.7492

          k =-0.5203-0.7580 0.0002 (  2304 PWs)   bands (ev):

   -13.7193 -12.3329 -12.3329  -8.6089  -7.4731  -2.3576  -1.6507  -1.6506
    -0.6700   0.0130   0.0132   0.6678   0.6679   2.6283   2.7839   3.5598
     7.7912  12.0780  12.0787  12.9379

          k =-0.5205-0.7584 0.7074 (  2285 PWs)   bands (ev):

   -12.6204 -11.2509 -11.2507  -7.6599  -6.6645  -3.9912  -3.2654  -3.2651
    -1.0203  -0.9215  -0.9214  -0.5530   0.6627   1.2487   1.2503   4.8941
     6.7855  10.9735  10.9753  13.4724

          k =-0.5201-0.7572-1.4142 (  2278 PWs)   bands (ev):

    -9.4418  -9.4417  -8.5267  -8.5266  -7.5280  -7.5276  -4.8586  -4.8586
    -3.1813  -3.1813  -0.6642  -0.6641   2.6914   2.6915   3.5470   3.5496
     7.5257   7.5286   8.7162   8.7163

     the Fermi energy is     5.1392 ev

!    total energy              =     -91.16129020 Ry
     Harris-Foulkes estimate   =     -91.16129020 Ry
     estimated scf accuracy    <          2.9E-10 Ry

     The total energy is the sum of the following terms:

     one-electron contribution =     -42.70409741 Ry
     hartree contribution      =      35.57198840 Ry
     xc contribution           =     -27.97464150 Ry
     ewald contribution        =     -56.05502289 Ry
     smearing contrib. (-TS)   =       0.00048320 Ry

     convergence has been achieved in   7 iterations

     Forces acting on atoms (cartesian axes, Ry/au):

     atom    1 type  1   force =     0.00111362   -0.00051107    0.00006129
     atom    2 type  1   force =     0.00100447   -0.00041531   -0.00000469
     atom    3 type  1   force =    -0.00116881    0.00058751   -0.00010484
     atom    4 type  1   force =     0.00104314   -0.00047051    0.00004549
     atom    5 type  1   force =     0.00120286   -0.00052935   -0.00001276
     atom    6 type  1   force =    -0.00108016    0.00043397    0.00001174
     atom    7 type  1   force =    -0.00098230    0.00042607    0.00000368
     atom    8 type  1   force =    -0.00113283    0.00047869    0.00000009

     Total force =     0.003386     Total SCF correction =     0.000006


     Computing stress (Cartesian axis) and pressure

          total   stress  (Ry/bohr**3)                   (kbar)     P=        2.44
   0.00001990   0.00000698  -0.00000013            2.93        1.03       -0.02
   0.00000698   0.00002296   0.00000006            1.03        3.38        0.01
  -0.00000013   0.00000006   0.00000700           -0.02        0.01        1.03


     number of scf cycles    =   7
     number of bfgs steps    =   6

     enthalpy old            =     -91.1612149896 Ry
     enthalpy new            =     -91.1612535906 Ry

     CASE: enthalpy_new < enthalpy_old

     new trust radius        =       0.0142334357 bohr
     new conv_thr            =       0.0000000100 Ry

     new unit-cell volume =    540.62615 a.u.^3 (    80.11253 Ang^3 )
     density =      1.98985 g/cm^3

CELL_PARAMETERS (bohr)
  13.235880545  -0.368836505   0.001963449
  -0.096667554   8.781382585   0.004673894
   0.001196704   0.000350126   4.652802206

ATOMIC_POSITIONS (crystal)
C             0.7145036777        0.7157712830        0.2789839409
C             0.9644969325        0.4657579087        0.7789270210
C             0.5471415690       -0.1168828414        0.2791809686
C             0.2145127790        0.2157935637        0.2789915303
C             0.4644628975        0.9656888384        0.7791800251
C             0.7971945703        0.6332397948        0.7789580826
C             0.0471718963        0.3831944690        1.2789267961
C             0.2971856776        0.1332219838        0.7790206354



     Writing output data file ./pp.save/
     NEW-OLD atomic charge density approx. for the potential
     extrapolated charge   32.12135, renormalised to   32.00000

     total cpu time spent up to now is       35.0 secs

     Self-consistent Calculation

     iteration #  1     ecut=    40.00 Ry     beta= 0.50
     Davidson diagonalization with overlap
     ethr =  1.00E-06,  avg # of iterations =  3.5

     total cpu time spent up to now is       36.5 secs

     total energy              =     -91.16095822 Ry
     Harris-Foulkes estimate   =     -91.02733790 Ry
     estimated scf accuracy    <       0.00017237 Ry

     iteration #  2     ecut=    40.00 Ry     beta= 0.50
     Davidson diagonalization with overlap
     ethr =  5.39E-07,  avg # of iterations =  3.2

     total cpu time spent up to now is       38.0 secs

     total energy              =     -91.16136301 Ry
     Harris-Foulkes estimate   =     -91.16140692 Ry
     estimated scf accuracy    <       0.00013681 Ry

     iteration #  3     ecut=    40.00 Ry     beta= 0.50
     Davidson diagonalization with overlap
     ethr =  4.28E-07,  avg # of iterations =  1.0

     total cpu time spent up to now is       38.8 secs

     total energy              =     -91.16133202 Ry
     Harris-Foulkes estimate   =     -91.16136697 Ry
     estimated scf accuracy    <       0.00005124 Ry

     iteration #  4     ecut=    40.00 Ry     beta= 0.50
     Davidson diagonalization with overlap
     ethr =  1.60E-07,  avg # of iterations =  2.0

     total cpu time spent up to now is       40.0 secs

     total energy              =     -91.16134394 Ry
     Harris-Foulkes estimate   =     -91.16134630 Ry
     estimated scf accuracy    <       0.00000478 Ry

     iteration #  5     ecut=    40.00 Ry     beta= 0.50
     Davidson diagonalization with overlap
     ethr =  1.49E-08,  avg # of iterations =  1.9

     total cpu time spent up to now is       41.0 secs

     total energy              =     -91.16134400 Ry
     Harris-Foulkes estimate   =     -91.16134434 Ry
     estimated scf accuracy    <       0.00000049 Ry

     iteration #  6     ecut=    40.00 Ry     beta= 0.50
     Davidson diagonalization with overlap
     ethr =  1.53E-09,  avg # of iterations =  2.0

     total cpu time spent up to now is       42.2 secs

     total energy              =     -91.16134411 Ry
     Harris-Foulkes estimate   =     -91.16134417 Ry
     estimated scf accuracy    <       0.00000011 Ry

     iteration #  7     ecut=    40.00 Ry     beta= 0.50
     Davidson diagonalization with overlap
     ethr =  3.46E-10,  avg # of iterations =  2.0

     total cpu time spent up to now is       43.4 secs

     End of self-consistent calculation

          k = 0.0000 0.0000 0.0000 (  2279 PWs)   bands (ev):

   -13.8650 -12.3343 -12.3342  -8.5944  -7.4689  -1.7192  -1.7191  -1.3927
    -0.7199  -0.3731  -0.3727   0.6364   0.6366   2.5989   2.7464   3.0501
     7.1608   9.1960  12.9872  13.0656

          k =-0.0001-0.0004 0.7073 (  2287 PWs)   bands (ev):

   -12.7577 -11.2550 -11.2548  -7.6509  -6.6765  -4.0594  -3.2918  -3.2916
    -0.9798  -0.9797  -0.5718  -0.1109   0.6342   0.8841   0.8856   4.4041
     6.6872  10.6156  10.8955  10.8975

          k = 0.0002 0.0008-1.4145 (  2298 PWs)   bands (ev):

    -9.5545  -9.5545  -8.5356  -8.5352  -7.5435  -7.5433  -4.8627  -4.8627
    -3.1939  -3.1939  -0.7174  -0.7174   3.2537   3.2557   3.3605   3.3606
     7.1946   7.1975   8.2965   8.2967

          k =-0.0209-0.7497 0.0001 (  2296 PWs)   bands (ev):

   -13.4164 -13.4163 -10.6133 -10.6132  -4.9882  -4.9881  -1.7455  -1.7453
    -0.3515  -0.3513   1.3387   1.3390   1.9084   1.9087   2.1554   2.1555
     9.5314   9.5316  12.6954  12.6964

          k =-0.0210-0.7501 0.7073 (  2283 PWs)   bands (ev):

   -12.3201 -12.3199  -9.5753  -9.5752  -4.7914  -4.7912  -3.2652  -3.2650
    -1.7487  -1.7485  -0.4330  -0.4317   0.6737   0.6739   3.3090   3.3094
     8.4498   8.4512  13.0346  13.0348

          k =-0.0207-0.7490-1.4145 (  2276 PWs)   bands (ev):

    -9.1720  -9.1718  -9.1712  -9.1709  -6.3528  -6.3527  -6.3520  -6.3519
    -1.7147  -1.7146  -1.7128  -1.7127   3.0362   3.0370   3.0380   3.0391
     8.1185   8.1188   8.1195   8.1198

          k =-0.4974-0.0055 0.0001 (  2274 PWs)   bands (ev):

   -13.4738 -13.4738 -10.5324 -10.5322  -4.9977  -4.9976  -1.2059  -1.2055
    -0.3597  -0.3595   1.3288   1.3290   1.3956   1.3958   1.9183   1.9187
     9.5425   9.5427  10.4057  10.4063

          k =-0.4975-0.0059 0.7074 (  2292 PWs)   bands (ev):

   -12.3729 -12.3728  -9.5021  -9.5020  -4.8091  -4.8090  -3.2787  -3.2784
    -1.7192  -1.7190   0.0724   0.0739   0.6669   0.6673   2.6154   2.6157
     8.6507   8.6525  11.7558  11.7605

          k =-0.4972-0.0047-1.4144 (  2278 PWs)   bands (ev):

    -9.2095  -9.2093  -9.2087  -9.2085  -6.3017  -6.3017  -6.3010  -6.3009
    -1.7195  -1.7194  -1.7176  -1.7175   3.3008   3.3015   3.3027   3.3036
     7.7147   7.7147   7.7157   7.7161

          k =-0.5183-0.7552 0.0002 (  2304 PWs)   bands (ev):

   -13.7590 -12.3705 -12.3704  -8.6472  -7.5111  -2.3850  -1.6912  -1.6911
    -0.7059  -0.0290  -0.0285   0.6321   0.6322   2.5925   2.7435   3.5158
     7.7471  12.0151  12.0174  12.9014

          k =-0.5184-0.7556 0.7074 (  2285 PWs)   bands (ev):

   -12.6599 -11.2883 -11.2882  -7.6980  -6.7024  -4.0284  -3.3022  -3.3020
    -1.0479  -0.9612  -0.9610  -0.5897   0.6236   1.2071   1.2088   4.8506
     6.7481  10.9360  10.9379  13.4114

          k =-0.5181-0.7544-1.4143 (  2278 PWs)   bands (ev):

    -9.4804  -9.4803  -8.5637  -8.5635  -7.5651  -7.5649  -4.8963  -4.8962
    -3.2195  -3.2195  -0.7038  -0.7038   2.6622   2.6622   3.5063   3.5086
     7.4860   7.4891   8.6737   8.6740

     the Fermi energy is     5.0948 ev

!    total energy              =     -91.16134412 Ry
     Harris-Foulkes estimate   =     -91.16134412 Ry
     estimated scf accuracy    <          1.5E-09 Ry

     The total energy is the sum of the following terms:

     one-electron contribution =     -43.38970352 Ry
     hartree contribution      =      35.86981123 Ry
     xc contribution           =     -27.97410056 Ry
     ewald contribution        =     -55.66784519 Ry
     smearing contrib. (-TS)   =       0.00049393 Ry

     convergence has been achieved in   7 iterations

     Forces acting on atoms (cartesian axes, Ry/au):

     atom    1 type  1   force =     0.00123965   -0.00059310    0.00006693
     atom    2 type  1   force =     0.00127371   -0.00048660    0.00004551
     atom    3 type  1   force =    -0.00125242    0.00065218   -0.00019079
     atom    4 type  1   force =     0.00122144   -0.00058642    0.00004858
     atom    5 type  1   force =     0.00133743   -0.00051553   -0.00014948
     atom    6 type  1   force =    -0.00131021    0.00046793    0.00007651
     atom    7 type  1   force =    -0.00119361    0.00058063    0.00008119
     atom    8 type  1   force =    -0.00131599    0.00048092    0.00002156

     Total force =     0.003921     Total SCF correction =     0.000009


     Computing stress (Cartesian axis) and pressure

          total   stress  (Ry/bohr**3)                   (kbar)     P=        2.39
   0.00001729   0.00000719  -0.00000002            2.54        1.06       -0.00
   0.00000719   0.00002019  -0.00000001            1.06        2.97       -0.00
  -0.00000002  -0.00000001   0.00001134           -0.00       -0.00        1.67


     number of scf cycles    =   8
     number of bfgs steps    =   7

     enthalpy old            =     -91.1612535906 Ry
     enthalpy new            =     -91.1613073717 Ry

     CASE: enthalpy_new < enthalpy_old

     new trust radius        =       0.0213097890 bohr
     new conv_thr            =       0.0000000100 Ry

     new unit-cell volume =    543.69824 a.u.^3 (    80.56777 Ang^3 )
     density =      1.97860 g/cm^3

CELL_PARAMETERS (bohr)
  13.261583735  -0.334608203   0.001956928
  -0.073241549   8.813703907   0.004620152
   0.001197057   0.000326016   4.652594248

ATOMIC_POSITIONS (crystal)
C             0.7145114651        0.7158037748        0.2789614062
C             0.9644815540        0.4657183911        0.7788168196
C             0.5471414920       -0.1169071217        0.2793204050
C             0.2145207660        0.2158144822        0.2789758078
C             0.4644468357        0.9656778851        0.7793127510
C             0.7972093183        0.6332683171        0.7789168247
C             0.0471534767        0.3831593568        1.2788254762
C             0.2972050922        0.1332499146        0.7790395095



     Writing output data file ./pp.save/
     NEW-OLD atomic charge density approx. for the potential
     extrapolated charge   32.18081, renormalised to   32.00000

     total cpu time spent up to now is       43.5 secs

     Self-consistent Calculation

     iteration #  1     ecut=    40.00 Ry     beta= 0.50
     Davidson diagonalization with overlap
     ethr =  1.00E-06,  avg # of iterations =  4.1

     total cpu time spent up to now is       45.4 secs

     total energy              =     -91.16054285 Ry
     Harris-Foulkes estimate   =     -90.95657289 Ry
     estimated scf accuracy    <       0.00038856 Ry

     iteration #  2     ecut=    40.00 Ry     beta= 0.50
     Davidson diagonalization with overlap
     ethr =  1.21E-06,  avg # of iterations =  3.8

     total cpu time spent up to now is       47.4 secs

     total energy              =     -91.16145859 Ry
     Harris-Foulkes estimate   =     -91.16155816 Ry
     estimated scf accuracy    <       0.00031017 Ry

     iteration #  3     ecut=    40.00 Ry     beta= 0.50
     Davidson diagonalization with overlap
     ethr =  9.69E-07,  avg # of iterations =  1.0

     total cpu time spent up to now is       48.3 secs

     total energy              =     -91.16138807 Ry
     Harris-Foulkes estimate   =     -91.16146750 Ry
     estimated scf accuracy    <       0.00011629 Ry

     iteration #  4     ecut=    40.00 Ry     beta= 0.50
     Davidson diagonalization with overlap
     ethr =  3.63E-07,  avg # of iterations =  2.1

     total cpu time spent up to now is       49.6 secs

     total energy              =     -91.16141517 Ry
     Harris-Foulkes estimate   =     -91.16142061 Ry
     estimated scf accuracy    <       0.00001092 Ry

     iteration #  5     ecut=    40.00 Ry     beta= 0.50
     Davidson diagonalization with overlap
     ethr =  3.41E-08,  avg # of iterations =  2.0

     total cpu time spent up to now is       50.9 secs

     total energy              =     -91.16141535 Ry
     Harris-Foulkes estimate   =     -91.16141608 Ry
     estimated scf accuracy    <       0.00000106 Ry

     iteration #  6     ecut=    40.00 Ry     beta= 0.50
     Davidson diagonalization with overlap
     ethr =  3.31E-09,  avg # of iterations =  2.0

     total cpu time spent up to now is       52.3 secs

     total energy              =     -91.16141558 Ry
     Harris-Foulkes estimate   =     -91.16141575 Ry
     estimated scf accuracy    <       0.00000029 Ry

     iteration #  7     ecut=    40.00 Ry     beta= 0.50
     Davidson diagonalization with overlap
     ethr =  8.91E-10,  avg # of iterations =  2.0

     total cpu time spent up to now is       53.7 secs

     End of self-consistent calculation

          k = 0.0000 0.0000 0.0000 (  2279 PWs)   bands (ev):

   -13.9188 -12.3918 -12.3916  -8.6530  -7.5265  -1.7758  -1.7757  -1.4663
    -0.7746  -0.4230  -0.4224   0.5810   0.5811   2.5432   2.6889   3.0019
     7.1125   9.1144  12.9122  13.0150

          k =-0.0001-0.0004 0.7073 (  2287 PWs)   bands (ev):

   -12.8115 -11.3123 -11.3121  -7.7093  -6.7335  -4.1143  -3.3480  -3.3478
    -1.0365  -1.0362  -0.6284  -0.1835   0.5770   0.8342   0.8356   4.3557
     6.6320  10.5361  10.8405  10.8427

          k = 0.0002 0.0007-1.4146 (  2298 PWs)   bands (ev):

    -9.6086  -9.6085  -8.5925  -8.5919  -7.6004  -7.6002  -4.9204  -4.9203
    -3.2512  -3.2511  -0.7742  -0.7741   3.2033   3.2050   3.2923   3.2925
     7.1438   7.1471   8.2475   8.2478

          k =-0.0188-0.7469 0.0001 (  2296 PWs)   bands (ev):

   -13.4742 -13.4740 -10.6683 -10.6675  -5.0458  -5.0454  -1.7929  -1.7927
    -0.4073  -0.4064   1.2804   1.2817   1.8526   1.8542   2.0851   2.0859
     9.4764   9.4775  12.5674  12.5681

          k =-0.0190-0.7473 0.7073 (  2283 PWs)   bands (ev):

   -12.3776 -12.3775  -9.6304  -9.6296  -4.8484  -4.8478  -3.3221  -3.3216
    -1.8044  -1.8032  -0.4807  -0.4794   0.6159   0.6170   3.2400   3.2410
     8.3984   8.3997  12.9687  12.9691

          k =-0.0186-0.7461-1.4145 (  2276 PWs)   bands (ev):

    -9.2293  -9.2291  -9.2276  -9.2275  -6.4084  -6.4082  -6.4066  -6.4065
    -1.7727  -1.7726  -1.7689  -1.7689   2.9849   2.9866   2.9868   2.9888
     8.0545   8.0554   8.0556   8.0563

          k =-0.4964-0.0041 0.0001 (  2274 PWs)   bands (ev):

   -13.5288 -13.5287 -10.5915 -10.5907  -5.0546  -5.0543  -1.2705  -1.2703
    -0.4149  -0.4141   1.2709   1.2723   1.3516   1.3523   1.8619   1.8635
     9.4835   9.4846  10.3106  10.3110

          k =-0.4965-0.0045 0.7074 (  2292 PWs)   bands (ev):

   -12.4279 -12.4277  -9.5610  -9.5602  -4.8650  -4.8647  -3.3349  -3.3342
    -1.7766  -1.7754   0.0084   0.0098   0.6096   0.6108   2.5707   2.5715
     8.5907   8.5927  11.6655  11.6702

          k =-0.4962-0.0034-1.4144 (  2278 PWs)   bands (ev):

    -9.2649  -9.2647  -9.2634  -9.2630  -6.3601  -6.3599  -6.3583  -6.3582
    -1.7773  -1.7771  -1.7735  -1.7734   3.2412   3.2427   3.2428   3.2444
     7.6649   7.6654   7.6663   7.6672

          k =-0.5152-0.7510 0.0002 (  2304 PWs)   bands (ev):

   -13.8180 -12.4260 -12.4259  -8.7031  -7.5666  -2.4260  -1.7494  -1.7493
    -0.7615  -0.0912  -0.0903   0.5769   0.5771   2.5372   2.6862   3.4510
     7.6831  11.9228  11.9269  12.8481

          k =-0.5153-0.7514 0.7075 (  2285 PWs)   bands (ev):

   -12.7186 -11.3438 -11.3437  -7.7539  -6.7582  -4.0850  -3.3579  -3.3575
    -1.0894  -1.0189  -1.0187  -0.6453   0.5671   1.1455   1.1473   4.7861
     6.6930  10.8802  10.8820  13.3212

          k =-0.5150-0.7503-1.4144 (  2278 PWs)   bands (ev):

    -9.5382  -9.5382  -8.6189  -8.6188  -7.6210  -7.6204  -4.9521  -4.9521
    -3.2754  -3.2754  -0.7614  -0.7613   2.6182   2.6182   3.4456   3.4482
     7.4267   7.4295   8.6106   8.6111

     the Fermi energy is     5.0288 ev

!    total energy              =     -91.16141562 Ry
     Harris-Foulkes estimate   =     -91.16141562 Ry
     estimated scf accuracy    <          1.7E-09 Ry

     The total energy is the sum of the following terms:

     one-electron contribution =     -44.42050976 Ry
     hartree contribution      =      36.31837143 Ry
     xc contribution           =     -27.97337747 Ry
     ewald contribution        =     -55.08641153 Ry
     smearing contrib. (-TS)   =       0.00051172 Ry

     convergence has been achieved in   7 iterations

     Forces acting on atoms (cartesian axes, Ry/au):

     atom    1 type  1   force =     0.00131320   -0.00067998    0.00014116
     atom    2 type  1   force =     0.00121431   -0.00034567    0.00016324
     atom    3 type  1   force =    -0.00140617    0.00080433   -0.00037851
     atom    4 type  1   force =     0.00118345   -0.00059434    0.00011263
     atom    5 type  1   force =     0.00155610   -0.00057353   -0.00022780
     atom    6 type  1   force =    -0.00134470    0.00038151    0.00008339
     atom    7 type  1   force =    -0.00106166    0.00054198    0.00013190
     atom    8 type  1   force =    -0.00145454    0.00046570   -0.00002602

     Total force =     0.004110     Total SCF correction =     0.000011


     Computing stress (Cartesian axis) and pressure

          total   stress  (Ry/bohr**3)                   (kbar)     P=        2.34
   0.00001551   0.00000596  -0.00000026            2.28        0.88       -0.04
   0.00000596   0.00001698   0.00000015            0.88        2.50        0.02
  -0.00000026   0.00000015   0.00001526           -0.04        0.02        2.24


     number of scf cycles    =   9
     number of bfgs steps    =   8

     enthalpy old            =     -91.1613073717 Ry
     enthalpy new            =     -91.1613786596 Ry

     CASE: enthalpy_new < enthalpy_old

     new trust radius        =       0.0318742271 bohr
     new conv_thr            =       0.0000000100 Ry

     new unit-cell volume =    548.36111 a.u.^3 (    81.25873 Ang^3 )
     density =      1.96178 g/cm^3

CELL_PARAMETERS (bohr)
  13.300438782  -0.283151658   0.001817397
[...]
     atom    6 type  1   force =     0.00018525   -0.00026352   -0.00099836
     atom    7 type  1   force =     0.00018828    0.00050795   -0.00116237
     atom    8 type  1   force =    -0.00063650   -0.00007553   -0.00128241

     Total force =     0.003987     Total SCF correction =     0.000121


     Computing stress (Cartesian axis) and pressure

          total   stress  (Ry/bohr**3)                   (kbar)     P=       -0.16
   0.00000130  -0.00000256  -0.00000521            0.19       -0.38       -0.77
  -0.00000256  -0.00000511   0.00000269           -0.38       -0.75        0.40
  -0.00000521   0.00000269   0.00000054           -0.77        0.40        0.08


     number of scf cycles    =  60
     number of bfgs steps    =  51

     enthalpy old            =     -91.1628182312 Ry
     enthalpy new            =     -91.1628452267 Ry

     CASE: enthalpy_new < enthalpy_old

     new trust radius        =       0.0063846448 bohr
     new conv_thr            =       0.0000000100 Ry

     new unit-cell volume =    573.26647 a.u.^3 (    84.94933 Ang^3 )
     density =      1.87655 g/cm^3

CELL_PARAMETERS (bohr)
  14.981635912   0.789575608  -0.004595389
   0.630057093   8.253000556  -0.002002821
  -0.001038120  -0.003232582   4.655179448

ATOMIC_POSITIONS (crystal)
C             0.7147517854        0.7166929980        0.2791214525
C             0.9640502712        0.4636159258        0.7791366087
C             0.5476805565       -0.1145266547        0.2787791394
C             0.2143457477        0.2148437530        0.2791185559
C             0.4650319281        0.9679002398        0.7788277626
C             0.7970553948        0.6328861964        0.7791003422
C             0.0465587709        0.3808677765        1.2790630342
C             0.2971955453        0.1335047653        0.7790221045



     Writing output data file ./pp.save/
     NEW-OLD atomic charge density approx. for the potential
     extrapolated charge   31.98774, renormalised to   32.00000

     total cpu time spent up to now is     2051.2 secs

     Self-consistent Calculation

     iteration #  1     ecut=    40.00 Ry     beta= 0.50
     Davidson diagonalization with overlap
     ethr =  1.00E-06,  avg # of iterations =  2.2

     Threshold (ethr) on eigenvalues was too large:
     Diagonalizing with lowered threshold

     Davidson diagonalization with overlap
     ethr =  1.02E-08,  avg # of iterations =  3.4

     total cpu time spent up to now is     2076.3 secs

     total energy              =     -91.16288587 Ry
     Harris-Foulkes estimate   =     -91.18005269 Ry
     estimated scf accuracy    <       0.00000378 Ry

     iteration #  2     ecut=    40.00 Ry     beta= 0.50
     Davidson diagonalization with overlap
     ethr =  1.18E-08,  avg # of iterations =  2.6

     total cpu time spent up to now is     2088.2 secs

     total energy              =     -91.16289059 Ry
     Harris-Foulkes estimate   =     -91.16289130 Ry
     estimated scf accuracy    <       0.00000213 Ry

     iteration #  3     ecut=    40.00 Ry     beta= 0.50
     Davidson diagonalization with overlap
     ethr =  6.65E-09,  avg # of iterations =  1.0

     total cpu time spent up to now is     2095.8 secs

     total energy              =     -91.16289045 Ry
     Harris-Foulkes estimate   =     -91.16289071 Ry
     estimated scf accuracy    <       0.00000062 Ry

     iteration #  4     ecut=    40.00 Ry     beta= 0.50
     Davidson diagonalization with overlap
     ethr =  1.93E-09,  avg # of iterations =  2.0

     total cpu time spent up to now is     2105.8 secs

     total energy              =     -91.16289048 Ry
     Harris-Foulkes estimate   =     -91.16289053 Ry
     estimated scf accuracy    <       0.00000011 Ry

     iteration #  5     ecut=    40.00 Ry     beta= 0.50
     Davidson diagonalization with overlap
     ethr =  3.59E-10,  avg # of iterations =  2.0

     total cpu time spent up to now is     2116.8 secs

     total energy              =     -91.16289051 Ry
     Harris-Foulkes estimate   =     -91.16289051 Ry
     estimated scf accuracy    <       0.00000001 Ry

     iteration #  6     ecut=    40.00 Ry     beta= 0.50
     Davidson diagonalization with overlap
     ethr =  3.27E-11,  avg # of iterations =  2.0

     total cpu time spent up to now is     2127.8 secs

     End of self-consistent calculation

          k = 0.0000 0.0000 0.0000 (  2279 PWs)   bands (ev):

   -14.4017 -12.9200 -12.9198  -9.1694  -8.0322  -2.2618  -2.2611  -2.1075
    -1.2882  -0.6629  -0.6628   0.0590   0.0592   2.0186   2.1826   2.5372
     6.6502   8.4011  11.2146  11.2151

          k = 0.0002 0.0002 0.7069 (  2287 PWs)   bands (ev):

   -13.2971 -11.8398 -11.8395  -8.2260  -7.2392  -4.6188  -3.8681  -3.8665
    -1.5318  -1.5298  -1.1500  -0.8191   0.0700   0.5766   0.5776   3.8883
     6.1193   9.8378  10.3555  10.3591

          k =-0.0004-0.0003-1.4138 (  2298 PWs)   bands (ev):

   -10.1018 -10.1018  -9.1211  -9.1192  -8.1237  -8.1216  -5.4386  -5.4385
    -3.7576  -3.7575  -1.2720  -1.2710   2.6855   2.6857   2.8866   2.8867
     6.8582   6.8646   7.7706   7.7707

          k = 0.0422-0.8007-0.0005 (  2296 PWs)   bands (ev):

   -13.9806 -13.9773 -11.1426 -11.1406  -5.5688  -5.5669  -2.3064  -2.3014
    -0.9270  -0.9228   0.7676   0.7708   1.2900   1.2962   1.3330   1.3372
     9.1528   9.1670  12.0550  12.0946

          k = 0.0424-0.8005 0.7063 (  2283 PWs)   bands (ev):

   -12.8852 -12.8819 -10.1088 -10.1067  -5.3682  -5.3650  -3.8396  -3.8361
    -2.3088  -2.3055  -0.9943  -0.9895   0.1017   0.1048   2.4650   2.4706
     7.9977   8.0004  12.3385  12.3450

          k = 0.0418-0.8010-1.4143 (  2276 PWs)   bands (ev):

    -9.7393  -9.7380  -9.7360  -9.7347  -6.8992  -6.8978  -6.8961  -6.8957
    -2.2875  -2.2865  -2.2847  -2.2837   2.4470   2.4500   2.4524   2.4537
     7.3655   7.3668   7.3742   7.3752

          k =-0.4411 0.0337-0.0001 (  2274 PWs)   bands (ev):

   -14.0287 -14.0271 -11.1269 -11.1250  -5.5417  -5.5397  -1.7565  -1.7466
    -0.9328  -0.9289   0.7703   0.7735   1.1027   1.1085   1.3355   1.3399
     8.7667   8.7795   9.1278   9.1442

          k =-0.4409 0.0338 0.7068 (  2292 PWs)   bands (ev):

   -12.9293 -12.9276 -10.0949 -10.0929  -5.3656  -5.3627  -3.8375  -3.8342
    -2.3029  -2.2996  -0.4795  -0.4701   0.1062   0.1092   2.3045   2.3097
     7.9646   7.9683  10.5430  10.5597

          k =-0.4415 0.0334-1.4139 (  2278 PWs)   bands (ev):

    -9.7716  -9.7703  -9.7693  -9.7682  -6.8893  -6.8880  -6.8866  -6.8858
    -2.2749  -2.2738  -2.2721  -2.2709   2.7759   2.7772   2.7820   2.7832
     7.2937   7.2963   7.3042   7.3066

          k =-0.3989-0.7670-0.0006 (  2304 PWs)   bands (ev):

   -14.3393 -12.9032 -12.9031  -9.2038  -8.0603  -2.8067  -2.2751  -2.2749
    -1.2812  -0.8554  -0.8552   0.0611   0.0613   2.0146   2.1824   2.8965
     7.1461  12.0756  12.0776  12.2724

          k =-0.3987-0.7669 0.7063 (  2285 PWs)   bands (ev):

   -13.2398 -11.8243 -11.8242  -8.2565  -7.2569  -4.6018  -3.8637  -3.8618
    -1.5412  -1.5391  -1.4754  -1.1610   0.0642   0.3963   0.3985   4.2311
     6.2012  10.3353  10.3360  13.4119

          k =-0.3993-0.7673-1.4144 (  2278 PWs)   bands (ev):

   -10.0592 -10.0591  -9.1081  -9.1066  -8.1138  -8.1113  -5.4598  -5.4597
    -3.7741  -3.7740  -1.2784  -1.2774   2.2048   2.2049   2.7498   2.7544
     6.6921   6.6924   8.0559   8.0560

     the Fermi energy is     4.4601 ev

!    total energy              =     -91.16289051 Ry
     Harris-Foulkes estimate   =     -91.16289051 Ry
     estimated scf accuracy    <          6.7E-10 Ry

     The total energy is the sum of the following terms:

     one-electron contribution =     -54.19902547 Ry
     hartree contribution      =      40.60183624 Ry
     xc contribution           =     -27.96118117 Ry
     ewald contribution        =     -49.60518158 Ry
     smearing contrib. (-TS)   =       0.00066147 Ry

     convergence has been achieved in   6 iterations

     Forces acting on atoms (cartesian axes, Ry/au):

     atom    1 type  1   force =     0.00032535   -0.00019950   -0.00041252
     atom    2 type  1   force =    -0.00036241    0.00086263   -0.00039147
     atom    3 type  1   force =    -0.00048833   -0.00051943    0.00053813
     atom    4 type  1   force =    -0.00032784    0.00053370   -0.00047528
     atom    5 type  1   force =     0.00046575   -0.00050772   -0.00005058
     atom    6 type  1   force =    -0.00003511   -0.00012536    0.00016276
     atom    7 type  1   force =     0.00049219    0.00022002    0.00034861
     atom    8 type  1   force =    -0.00006960   -0.00026434    0.00028035

     Total force =     0.001961     Total SCF correction =     0.000056


     Computing stress (Cartesian axis) and pressure

          total   stress  (Ry/bohr**3)                   (kbar)     P=       -0.43
  -0.00000190  -0.00000148   0.00000159           -0.28       -0.22        0.23
  -0.00000148  -0.00000536  -0.00000087           -0.22       -0.79       -0.13
   0.00000159  -0.00000087  -0.00000142            0.23       -0.13       -0.21


     number of scf cycles    =  61
     number of bfgs steps    =  52

     enthalpy old            =     -91.1628452267 Ry
     enthalpy new            =     -91.1628515378 Ry

     CASE: enthalpy_new < enthalpy_old

     new trust radius        =       0.0055426769 bohr
     new conv_thr            =       0.0000000100 Ry

     new unit-cell volume =    573.03123 a.u.^3 (    84.91447 Ang^3 )
     density =      1.87732 g/cm^3

CELL_PARAMETERS (bohr)
  14.992249754   0.793869550  -0.004639453
   0.633076418   8.244099293  -0.002078363
  -0.001051842  -0.003270427   4.655195463

ATOMIC_POSITIONS (crystal)
C             0.7147696269        0.7166826832        0.2791220771
C             0.9640223930        0.4636678244        0.7790903497
C             0.5476906473       -0.1145945823        0.2788198824
C             0.2143282774        0.2148709227        0.2790752148
C             0.4650701953        0.9678759711        0.7788972435
C             0.7970483444        0.6328809447        0.7790606399
C             0.0465483027        0.3809210791        1.2790649179
C             0.2971922129        0.1334801571        0.7790386746



     Writing output data file ./pp.save/
     NEW-OLD atomic charge density approx. for the potential
     extrapolated charge   31.98686, renormalised to   32.00000

     total cpu time spent up to now is     2128.3 secs

     Self-consistent Calculation

     iteration #  1     ecut=    40.00 Ry     beta= 0.50
     Davidson diagonalization with overlap
     ethr =  1.00E-06,  avg # of iterations =  2.0

     Threshold (ethr) on eigenvalues was too large:
     Diagonalizing with lowered threshold

     Davidson diagonalization with overlap
     ethr =  8.39E-09,  avg # of iterations =  3.3

     total cpu time spent up to now is     2152.3 secs

     total energy              =     -91.16288824 Ry
     Harris-Foulkes estimate   =     -91.18124375 Ry
     estimated scf accuracy    <       0.00000286 Ry

     iteration #  2     ecut=    40.00 Ry     beta= 0.50
     Davidson diagonalization with overlap
     ethr =  8.92E-09,  avg # of iterations =  3.0

     total cpu time spent up to now is     2165.6 secs

     total energy              =     -91.16289364 Ry
     Harris-Foulkes estimate   =     -91.16289428 Ry
     estimated scf accuracy    <       0.00000204 Ry

     iteration #  3     ecut=    40.00 Ry     beta= 0.50
     Davidson diagonalization with overlap
     ethr =  6.38E-09,  avg # of iterations =  1.0

     total cpu time spent up to now is     2173.5 secs

     total energy              =     -91.16289341 Ry
     Harris-Foulkes estimate   =     -91.16289372 Ry
     estimated scf accuracy    <       0.00000070 Ry

     iteration #  4     ecut=    40.00 Ry     beta= 0.50
     Davidson diagonalization with overlap
     ethr =  2.19E-09,  avg # of iterations =  2.0

     total cpu time spent up to now is     2183.8 secs

     total energy              =     -91.16289342 Ry
     Harris-Foulkes estimate   =     -91.16289347 Ry
     estimated scf accuracy    <       0.00000010 Ry

     iteration #  5     ecut=    40.00 Ry     beta= 0.50
     Davidson diagonalization with overlap
     ethr =  3.23E-10,  avg # of iterations =  2.0

     total cpu time spent up to now is     2195.5 secs

     total energy              =     -91.16289345 Ry
     Harris-Foulkes estimate   =     -91.16289346 Ry
     estimated scf accuracy    <       0.00000002 Ry

     iteration #  6     ecut=    40.00 Ry     beta= 0.50
     Davidson diagonalization with overlap
     ethr =  6.44E-11,  avg # of iterations =  1.9

     total cpu time spent up to now is     2205.5 secs

     End of self-consistent calculation

          k = 0.0000 0.0000 0.0000 (  2279 PWs)   bands (ev):

   -14.3976 -12.9161 -12.9159  -9.1659  -8.0281  -2.2582  -2.2574  -2.1023
    -1.2839  -0.6570  -0.6568   0.0630   0.0632   2.0223   2.1861   2.5415
     6.6550   8.4068  11.2136  11.2140

          k = 0.0002 0.0002 0.7069 (  2287 PWs)   bands (ev):

   -13.2930 -11.8359 -11.8356  -8.2225  -7.2351  -4.6146  -3.8640  -3.8627
    -1.5280  -1.5263  -1.1463  -0.8139   0.0739   0.5824   0.5834   3.8925
     6.1238   9.8433  10.3595  10.3629

          k =-0.0004-0.0003-1.4138 (  2298 PWs)   bands (ev):

   -10.0977 -10.0977  -9.1171  -9.1153  -8.1196  -8.1178  -5.4350  -5.4350
    -3.7535  -3.7534  -1.2682  -1.2675   2.6904   2.6905   2.8919   2.8922
     6.8639   6.8699   7.7745   7.7747

          k = 0.0424-0.8016-0.0006 (  2296 PWs)   bands (ev):

   -13.9750 -13.9742 -11.1379 -11.1372  -5.5645  -5.5639  -2.3046  -2.2976
    -0.9211  -0.9203   0.7719   0.7733   1.2917   1.2982   1.3381   1.3398
     9.1567   9.1704  12.0696  12.1083

          k = 0.0427-0.8014 0.7063 (  2283 PWs)   bands (ev):

   -12.8796 -12.8789 -10.1041 -10.1033  -5.3636  -5.3617  -3.8347  -3.8330
    -2.3041  -2.3024  -0.9924  -0.9857   0.1059   0.1077   2.4669   2.4727
     8.0011   8.0041  12.3425  12.3473

          k = 0.0420-0.8019-1.4143 (  2276 PWs)   bands (ev):

    -9.7331  -9.7330  -9.7325  -9.7322  -6.8940  -6.8937  -6.8929  -6.8923
    -2.2834  -2.2824  -2.2811  -2.2805   2.4505   2.4517   2.4562   2.4568
     7.3672   7.3685   7.3769   7.3777

          k =-0.4408 0.0338-0.0001 (  2274 PWs)   bands (ev):

   -14.0244 -14.0234 -11.1227 -11.1216  -5.5372  -5.5367  -1.7498  -1.7421
    -0.9271  -0.9263   0.7747   0.7762   1.1085   1.1137   1.3406   1.3424
     8.7699   8.7825   9.1320   9.1475

          k =-0.4406 0.0340 0.7068 (  2292 PWs)   bands (ev):

   -12.9249 -12.9240 -10.0907 -10.0895  -5.3611  -5.3592  -3.8327  -3.8310
    -2.2983  -2.2966  -0.4730  -0.4657   0.1105   0.1122   2.3104   2.3147
     7.9688   7.9714  10.5473  10.5630

          k =-0.4412 0.0335-1.4139 (  2278 PWs)   bands (ev):

    -9.7665  -9.7661  -9.7654  -9.7652  -6.8845  -6.8841  -6.8833  -6.8827
    -2.2706  -2.2697  -2.2683  -2.2678   2.7820   2.7826   2.7869   2.7872
     7.2991   7.3016   7.3090   7.3104

          k =-0.3983-0.7677-0.0006 (  2304 PWs)   bands (ev):

   -14.3350 -12.8989 -12.8988  -9.2002  -8.0560  -2.8035  -2.2716  -2.2715
    -1.2769  -0.8533  -0.8532   0.0652   0.0654   2.0183   2.1859   2.8991
     7.1482  12.0892  12.0912  12.2828

          k =-0.3981-0.7676 0.7063 (  2285 PWs)   bands (ev):

   -13.2355 -11.8201 -11.8199  -8.2529  -7.2527  -4.5976  -3.8595  -3.8579
    -1.5375  -1.5357  -1.4721  -1.1573   0.0680   0.3986   0.4007   4.2337
     6.2042  10.3382  10.3391  13.4148

          k =-0.3988-0.7681-1.4144 (  2278 PWs)   bands (ev):

   -10.0548 -10.0548  -9.1038  -9.1025  -8.1095  -8.1073  -5.4562  -5.4561
    -3.7700  -3.7699  -1.2747  -1.2740   2.2081   2.2082   2.7526   2.7569
     6.6938   6.6945   8.0586   8.0587

     the Fermi energy is     4.4624 ev

!    total energy              =     -91.16289345 Ry
     Harris-Foulkes estimate   =     -91.16289345 Ry
     estimated scf accuracy    <          2.8E-09 Ry

     The total energy is the sum of the following terms:

     one-electron contribution =     -54.10812488 Ry
     hartree contribution      =      40.56113202 Ry
     xc contribution           =     -27.96090128 Ry
     ewald contribution        =     -49.65566429 Ry
     smearing contrib. (-TS)   =       0.00066498 Ry

     convergence has been achieved in   6 iterations

     Forces acting on atoms (cartesian axes, Ry/au):

     atom    1 type  1   force =     0.00006272   -0.00017786   -0.00054618
     atom    2 type  1   force =     0.00008868    0.00064134   -0.00017343
     atom    3 type  1   force =    -0.00039527   -0.00037376    0.00062069
     atom    4 type  1   force =    -0.00009269    0.00038532   -0.00018020
     atom    5 type  1   force =    -0.00016064   -0.00037844   -0.00021741
     atom    6 type  1   force =    -0.00000526   -0.00006518    0.00032049
     atom    7 type  1   force =     0.00043503    0.00019371    0.00010777
     atom    8 type  1   force =     0.00006743   -0.00022513    0.00006827

     Total force =     0.001508     Total SCF correction =     0.000013


     Computing stress (Cartesian axis) and pressure

          total   stress  (Ry/bohr**3)                   (kbar)     P=       -0.53
  -0.00000412  -0.00000037   0.00000140           -0.61       -0.05        0.21
  -0.00000037  -0.00000481  -0.00000078           -0.05       -0.71       -0.11
   0.00000140  -0.00000078  -0.00000197            0.21       -0.11       -0.29


     number of scf cycles    =  62
     number of bfgs steps    =  53

     enthalpy old            =     -91.1628515378 Ry
     enthalpy new            =     -91.1628544952 Ry

     CASE: enthalpy_new < enthalpy_old

     new trust radius        =       0.0055881912 bohr
     new conv_thr            =       0.0000000100 Ry

     new unit-cell volume =    572.57092 a.u.^3 (    84.84626 Ang^3 )
     density =      1.87883 g/cm^3

CELL_PARAMETERS (bohr)
  14.997975423   0.794299824  -0.004615817
   0.633392821   8.234563298  -0.002193127
  -0.001042741  -0.003328288   4.655099451

ATOMIC_POSITIONS (crystal)
C             0.7147858550        0.7165955366        0.2790639480
C             0.9640217986        0.4638844992        0.7790599792
C             0.5476773959       -0.1148509469        0.2789277669
C             0.2143162810        0.2149678846        0.2790633241
C             0.4650812787        0.9677129788        0.7789436343
C             0.7970362787        0.6328930753        0.7790586516
C             0.0465573470        0.3811706473        1.2790280138
C             0.2971937651        0.1334113251        0.7790236821



     Writing output data file ./pp.save/
     NEW-OLD atomic charge density approx. for the potential
     extrapolated charge   31.97427, renormalised to   32.00000

     total cpu time spent up to now is     2205.9 secs

     Self-consistent Calculation

     iteration #  1     ecut=    40.00 Ry     beta= 0.50
     Davidson diagonalization with overlap
     ethr =  1.00E-06,  avg # of iterations =  2.2

     Threshold (ethr) on eigenvalues was too large:
     Diagonalizing with lowered threshold

     Davidson diagonalization with overlap
     ethr =  3.43E-08,  avg # of iterations =  2.5

     total cpu time spent up to now is     2228.2 secs

     total energy              =     -91.16287857 Ry
     Harris-Foulkes estimate   =     -91.19872141 Ry
     estimated scf accuracy    <       0.00001139 Ry

     iteration #  2     ecut=    40.00 Ry     beta= 0.50
     Davidson diagonalization with overlap
     ethr =  3.56E-08,  avg # of iterations =  2.8

     total cpu time spent up to now is     2241.5 secs

     total energy              =     -91.16289959 Ry
     Harris-Foulkes estimate   =     -91.16290197 Ry
     estimated scf accuracy    <       0.00000719 Ry

     iteration #  3     ecut=    40.00 Ry     beta= 0.50
     Davidson diagonalization with overlap
