
     Program PWSCF v.6.5 starts on  7Jul2022 at  7:35:21 

     This program is part of the open-source Quantum ESPRESSO suite
     for quantum simulation of materials; please cite
         "P. Giannozzi et al., J. Phys.:Condens. Matter 21 395502 (2009);
         "P. Giannozzi et al., J. Phys.:Condens. Matter 29 465901 (2017);
          URL http://www.quantum-espresso.org", 
     in publications or presentations arising from this work. More details at
     http://www.quantum-espresso.org/quote

     Parallel version (MPI), running on    96 processors

     MPI processes distributed on     2 nodes
     R & G space division:  proc/nbgrp/npool/nimage =      96
     Waiting for input...
     Reading input from standard input
     Message from routine read_cards :
     DEPRECATED: no units specified in CELL_PARAMETERS card

     Current dimensions of program PWSCF are:
     Max number of different atomic species (ntypx) = 10
     Max number of k-points (npk) =  40000
     Max angular momentum in pseudopotentials (lmaxx) =  3

     Subspace diagonalization in iterative solution of the eigenvalue problem:
     one sub-group per band group will be used
     scalapack distributed-memory algorithm (size of sub-group:  9*  9 procs)

 
     Parallelization info
     --------------------
     sticks:   dense  smooth     PW     G-vecs:    dense   smooth      PW
     Min          16      16      4                  296      296      45
     Max          17      17      5                  300      300      50
     Sum        1537    1537    455                28645    28645    4589
 


     bravais-lattice index     =            0
     lattice parameter (alat)  =      12.5165  a.u.
     unit-cell volume          =     836.9908 (a.u.)^3
     number of atoms/cell      =            8
     number of atomic types    =            1
     number of electrons       =        32.00
     number of Kohn-Sham states=           20
     kinetic-energy cutoff     =      40.0000  Ry
     charge density cutoff     =     160.0000  Ry
     convergence threshold     =      1.0E-08
     mixing beta               =       0.5000
     number of iterations used =            8  plain     mixing
     Exchange-correlation=  SLA  PW   PBE  PBE
                           (   1   4   3   4   0   0   0)
     nstep                     =          250


     celldm(1)=  12.516468  celldm(2)=   0.000000  celldm(3)=   0.000000
     celldm(4)=   0.000000  celldm(5)=   0.000000  celldm(6)=   0.000000

     crystal axes: (cart. coord. in units of alat)
               a(1) = (   0.992437  -0.055423   0.109536 )  
               a(2) = (  -0.038270   0.771639  -0.048065 )  
               a(3) = (   0.051812  -0.029833   0.566190 )  

     reciprocal axes: (cart. coord. in units 2 pi/alat)
               b(1) = (  1.020173  0.044928 -0.090988 )  
               b(2) = (  0.065860  1.303110  0.062634 )  
               b(3) = ( -0.191773  0.101931  1.789111 )  


     PseudoPot. # 1 for C  read from file:
     ./C.pbe-van_bm.upf
     MD5 check sum: 1a69bf6b8db32088f5b2163dbdb77a27
     Pseudo is Ultrasoft, Zval =  4.0
     Generated by new atomic code, or converted to UPF format
     Using radial grid of  721 points,  4 beta functions with: 
                l(1) =   0
                l(2) =   0
                l(3) =   1
                l(4) =   1
     Q(r) pseudized with  8 coefficients,  rinner =    0.800   0.800   0.800


     atomic species   valence    mass     pseudopotential
        C              4.00    12.00000     C ( 1.00)

     No symmetry found



   Cartesian axes

     site n.     atom                  positions (alat units)
         1           C   tau(   1) = (   0.8468799   0.6450903   0.1947535  )
         2           C   tau(   2) = (   0.3702521   0.2864072   0.1648654  )
         3           C   tau(   3) = (   0.1383281   0.4787662   0.4080481  )
         4           C   tau(   4) = (   0.6538341   0.0651458   0.4870581  )
         5           C   tau(   5) = (   0.7309256   0.7408789   0.3166617  )
         6           C   tau(   6) = (   0.2540386   0.3826360   0.2862059  )
         7           C   tau(   7) = (   0.4860992   0.1907849   0.0427713  )
         8           C   tau(   8) = (   0.0086131  -0.1668603   0.0113213  )

     number of k points=     8  Marzari-Vanderbilt smearing, width (Ry)=  0.0200
                       cart. coord. in units 2pi/alat
        k(    1) = (   0.0000000   0.0000000   0.0000000), wk =   0.1666667
        k(    2) = (  -0.0639242   0.0339770   0.5963704), wk =   0.3333333
        k(    3) = (  -0.0329298  -0.6515549  -0.0313172), wk =   0.1666667
        k(    4) = (  -0.0968541  -0.6175779   0.5650532), wk =   0.3333333
        k(    5) = (  -0.5100863  -0.0224640   0.0454941), wk =   0.1666667
        k(    6) = (  -0.5740105   0.0115130   0.6418645), wk =   0.3333333
        k(    7) = (  -0.5430161  -0.6740190   0.0141769), wk =   0.1666667
        k(    8) = (  -0.6069403  -0.6400420   0.6105473), wk =   0.3333333

     Dense  grid:    28645 G-vectors     FFT dimensions: (  54,  40,  30)

     Estimated max dynamical RAM per process >       1.58 MB

     Estimated total dynamical RAM >     151.61 MB

     Initial potential from superposition of free atoms

     starting charge   31.99968, renormalised to   32.00000
     Starting wfcs are   32 randomized atomic wfcs

     total cpu time spent up to now is        1.6 secs

     Self-consistent Calculation

     iteration #  1     ecut=    40.00 Ry     beta= 0.50
     Davidson diagonalization with overlap
     ethr =  1.00E-02,  avg # of iterations =  2.0

     total cpu time spent up to now is        2.1 secs

     total energy              =     -90.49373343 Ry
     Harris-Foulkes estimate   =     -91.02244704 Ry
     estimated scf accuracy    <       0.99372378 Ry

     iteration #  2     ecut=    40.00 Ry     beta= 0.50
     Davidson diagonalization with overlap
     ethr =  3.11E-03,  avg # of iterations =  2.0

     total cpu time spent up to now is        2.5 secs

     total energy              =     -90.56399129 Ry
     Harris-Foulkes estimate   =     -90.59454248 Ry
     estimated scf accuracy    <       0.06080140 Ry

     iteration #  3     ecut=    40.00 Ry     beta= 0.50
     Davidson diagonalization with overlap
     ethr =  1.90E-04,  avg # of iterations =  2.0

     total cpu time spent up to now is        2.9 secs

     total energy              =     -90.57456435 Ry
     Harris-Foulkes estimate   =     -90.57510291 Ry
     estimated scf accuracy    <       0.00253161 Ry

     iteration #  4     ecut=    40.00 Ry     beta= 0.50
     Davidson diagonalization with overlap
     ethr =  7.91E-06,  avg # of iterations =  2.0

     total cpu time spent up to now is        3.3 secs

     total energy              =     -90.57474079 Ry
     Harris-Foulkes estimate   =     -90.57486089 Ry
     estimated scf accuracy    <       0.00022389 Ry

     iteration #  5     ecut=    40.00 Ry     beta= 0.50
     Davidson diagonalization with overlap
     ethr =  7.00E-07,  avg # of iterations =  3.1

     total cpu time spent up to now is        3.9 secs

     total energy              =     -90.57478174 Ry
     Harris-Foulkes estimate   =     -90.57478310 Ry
     estimated scf accuracy    <       0.00000482 Ry

     iteration #  6     ecut=    40.00 Ry     beta= 0.50
     Davidson diagonalization with overlap
     ethr =  1.51E-08,  avg # of iterations =  2.6

     total cpu time spent up to now is        4.3 secs

     total energy              =     -90.57478298 Ry
     Harris-Foulkes estimate   =     -90.57478324 Ry
     estimated scf accuracy    <       0.00000088 Ry

     iteration #  7     ecut=    40.00 Ry     beta= 0.50
     Davidson diagonalization with overlap
     ethr =  2.76E-09,  avg # of iterations =  2.1

     total cpu time spent up to now is        4.6 secs

     total energy              =     -90.57478306 Ry
     Harris-Foulkes estimate   =     -90.57478308 Ry
     estimated scf accuracy    <       0.00000006 Ry

     iteration #  8     ecut=    40.00 Ry     beta= 0.50
     Davidson diagonalization with overlap
     ethr =  2.01E-10,  avg # of iterations =  2.6

     total cpu time spent up to now is        5.1 secs

     End of self-consistent calculation

          k = 0.0000 0.0000 0.0000 (  3569 PWs)   bands (ev):

   -15.1921 -14.1637 -14.1633 -11.8433 -11.8423  -9.1127  -9.1122  -7.7000
    -3.8131  -3.0241  -3.0233  -2.7680  -2.2449  -2.2438   0.5319   0.5350
     1.6077   1.6106   5.7953   6.9054

          k =-0.0639 0.0340 0.5964 (  3570 PWs)   bands (ev):

   -14.6802 -14.6256 -13.4073 -12.9355 -11.0488 -10.1113  -8.4507  -7.8573
    -4.5884  -3.9017  -3.1442  -3.0122  -2.4112  -1.2194  -0.8013   0.8839
     2.8596   3.5043   5.2722   5.5433

          k =-0.0329-0.6516-0.0313 (  3586 PWs)   bands (ev):

   -14.8868 -14.8839 -13.1498 -13.1495 -10.4318 -10.4316  -8.1005  -8.0992
    -3.9687  -3.9662  -2.7004  -2.6929  -1.2770  -1.2756  -0.7306  -0.7301
     3.3784   3.3788   4.2293   4.2295

          k =-0.0969-0.6176 0.5651 (  3596 PWs)   bands (ev):

   -14.8322 -14.1651 -13.9964 -12.3312 -11.6201  -9.6906  -8.7389  -7.7429
    -4.2718  -4.0271  -3.9700  -2.8015  -2.4701  -1.1909   0.1983   0.4602
     2.3220   3.0970   6.4586   7.1426

          k =-0.5101-0.0225 0.0455 (  3588 PWs)   bands (ev):

   -14.9138 -14.9109 -13.1095 -13.1092 -10.4509 -10.4507  -8.0939  -8.0926
    -3.7408  -3.7384  -2.6730  -2.6661  -1.2673  -1.2660  -1.1468  -1.1465
     3.3116   3.3118   4.5245   4.5250

          k =-0.5740 0.0115 0.6419 (  3576 PWs)   bands (ev):

   -14.8475 -14.1490 -14.0202 -12.3509 -11.5820  -9.6692  -8.7525  -7.7461
    -4.2237  -3.9968  -3.8431  -2.9320  -2.2516  -1.2207   0.1519   0.6478
     1.7852   3.0915   5.9987   7.1647

          k =-0.5430-0.6740 0.0142 (  3580 PWs)   bands (ev):

   -15.0949 -14.2284 -14.2280 -11.8200 -11.8190  -9.1215  -9.1211  -7.6987
    -4.6056  -2.7712  -2.4825  -2.4820  -2.2710  -2.2706   0.6058   0.6092
     1.3397   1.3416   6.8740   6.8751

          k =-0.6069-0.6400 0.6105 (  3571 PWs)   bands (ev):

   -14.6863 -14.5974 -13.3577 -12.9911 -11.0806 -10.0994  -8.4455  -7.8579
    -4.6799  -3.8237  -3.4401  -2.9954  -2.3407  -1.6798  -0.1866   0.8862
     3.3542   3.4941   5.0747   5.5740

     the Fermi energy is     1.0666 ev

!    total energy              =     -90.57478308 Ry
     Harris-Foulkes estimate   =     -90.57478308 Ry
     estimated scf accuracy    <          2.1E-09 Ry

     The total energy is the sum of the following terms:

     one-electron contribution =     -57.49415397 Ry
     hartree contribution      =      38.33046132 Ry
     xc contribution           =     -27.25712081 Ry
     ewald contribution        =     -44.15673042 Ry
     smearing contrib. (-TS)   =       0.00276080 Ry

     convergence has been achieved in   8 iterations

     Forces acting on atoms (cartesian axes, Ry/au):

     atom    1 type  1   force =    -0.00003587    0.00005161    0.00000181
     atom    2 type  1   force =    -0.00041251    0.00054853   -0.00012803
     atom    3 type  1   force =    -0.00025202   -0.00000446   -0.00027285
     atom    4 type  1   force =    -0.00028351   -0.00019302   -0.00027114
     atom    5 type  1   force =     0.00044223    0.00010334    0.00011614
     atom    6 type  1   force =     0.00039510   -0.00013499    0.00019396
     atom    7 type  1   force =    -0.00006058   -0.00006242    0.00019391
     atom    8 type  1   force =     0.00020715   -0.00030860    0.00016619

     Total force =     0.001210     Total SCF correction =     0.000025


     Computing stress (Cartesian axis) and pressure

          total   stress  (Ry/bohr**3)                   (kbar)     P=        5.98
   0.00001483  -0.00001110   0.00008105            2.18       -1.63       11.92
  -0.00001110   0.00000150  -0.00004910           -1.63        0.22       -7.22
   0.00008105  -0.00004910   0.00010555           11.92       -7.22       15.53


     BFGS Geometry Optimization

     number of scf cycles    =   1
     number of bfgs steps    =   0

     enthalpy new            =     -90.5747261845 Ry

     new trust radius        =       0.0205123401 bohr
     new conv_thr            =       0.0000000100 Ry

     new unit-cell volume =    839.53301 a.u.^3 (   124.40596 Ang^3 )
     density =      1.28138 g/cm^3

CELL_PARAMETERS (bohr)
  12.429354010  -0.698854151   1.400638269
  -0.483075487   9.659416864  -0.616012510
   0.663203190  -0.382292153   7.107161187

ATOMIC_POSITIONS (crystal)
C             0.8752232488        0.9086021938        0.2517832283
C             0.3755572776        0.4079852974        0.2531444861
C             0.1254824265        0.6585498447        0.7522818243
C             0.6256121705        0.1584370561        0.7526180153
C             0.7501795709        1.0334326670        0.5019006671
C             0.2503433088        0.5332629957        0.5023595723
C             0.5005784286        0.2833011529        0.0027771377
C             0.0002745682       -0.2161912076        0.0016130689



     Writing output data file ./pp.save/
     NEW-OLD atomic charge density approx. for the potential
     extrapolated charge   32.09690, renormalised to   32.00000

     total cpu time spent up to now is        5.2 secs

     Self-consistent Calculation

     iteration #  1     ecut=    40.00 Ry     beta= 0.50
     Davidson diagonalization with overlap
     ethr =  1.00E-06,  avg # of iterations =  3.0

     total cpu time spent up to now is        5.7 secs

     total energy              =     -90.57505712 Ry
     Harris-Foulkes estimate   =     -90.44966072 Ry
     estimated scf accuracy    <       0.00009448 Ry

     iteration #  2     ecut=    40.00 Ry     beta= 0.50
     Davidson diagonalization with overlap
     ethr =  2.95E-07,  avg # of iterations =  3.0

     total cpu time spent up to now is        6.3 secs

     total energy              =     -90.57535629 Ry
     Harris-Foulkes estimate   =     -90.57540447 Ry
     estimated scf accuracy    <       0.00017426 Ry

     iteration #  3     ecut=    40.00 Ry     beta= 0.50
     Davidson diagonalization with overlap
     ethr =  2.95E-07,  avg # of iterations =  1.0

     total cpu time spent up to now is        6.5 secs

     total energy              =     -90.57531134 Ry
     Harris-Foulkes estimate   =     -90.57536017 Ry
     estimated scf accuracy    <       0.00007595 Ry

     iteration #  4     ecut=    40.00 Ry     beta= 0.50
     Davidson diagonalization with overlap
     ethr =  2.37E-07,  avg # of iterations =  2.0

     total cpu time spent up to now is        7.0 secs

     total energy              =     -90.57532840 Ry
     Harris-Foulkes estimate   =     -90.57532836 Ry
     estimated scf accuracy    <       0.00000229 Ry

     iteration #  5     ecut=    40.00 Ry     beta= 0.50
     Davidson diagonalization with overlap
     ethr =  7.16E-09,  avg # of iterations =  2.1

     total cpu time spent up to now is        7.3 secs

     total energy              =     -90.57532763 Ry
     Harris-Foulkes estimate   =     -90.57532880 Ry
     estimated scf accuracy    <       0.00000208 Ry

     iteration #  6     ecut=    40.00 Ry     beta= 0.50
     Davidson diagonalization with overlap
     ethr =  6.50E-09,  avg # of iterations =  2.0

     total cpu time spent up to now is        7.7 secs

     total energy              =     -90.57532783 Ry
     Harris-Foulkes estimate   =     -90.57532787 Ry
     estimated scf accuracy    <       0.00000007 Ry

     iteration #  7     ecut=    40.00 Ry     beta= 0.50
     Davidson diagonalization with overlap
     ethr =  2.12E-10,  avg # of iterations =  2.9

     total cpu time spent up to now is        8.2 secs

     End of self-consistent calculation

          k = 0.0000 0.0000 0.0000 (  3569 PWs)   bands (ev):

   -15.2177 -14.1929 -14.1921 -11.8767 -11.8764  -9.1461  -9.1453  -7.7330
    -3.8424  -3.0509  -3.0502  -2.8269  -2.2843  -2.2831   0.5240   0.5280
     1.5844   1.5851   5.7630   6.9167

          k =-0.0651 0.0347 0.5950 (  3570 PWs)   bands (ev):

   -14.7099 -14.6631 -13.4434 -12.9609 -11.0780 -10.1400  -8.4808  -7.8907
    -4.6056  -3.9376  -3.1768  -3.0483  -2.4211  -1.2519  -0.8199   0.8339
     2.8438   3.4863   5.2614   5.5231

          k =-0.0330-0.6516-0.0320 (  3586 PWs)   bands (ev):

   -14.9132 -14.9109 -13.1815 -13.1809 -10.4661 -10.4654  -8.1331  -8.1324
    -3.9950  -3.9931  -2.7539  -2.7461  -1.2997  -1.2978  -0.7595  -0.7590
     3.3819   3.3826   4.2100   4.2109

          k =-0.0981-0.6169 0.5630 (  3596 PWs)   bands (ev):

   -14.8664 -14.2033 -14.0230 -12.3635 -11.6460  -9.7188  -8.7707  -7.7756
    -4.2982  -4.0378  -4.0034  -2.8384  -2.4942  -1.2382   0.1834   0.4372
     2.3053   3.0565   6.4508   7.1220

          k =-0.5100-0.0225 0.0464 (  3588 PWs)   bands (ev):

   -14.9400 -14.9377 -13.1416 -13.1410 -10.4851 -10.4844  -8.1265  -8.1258
    -3.7687  -3.7669  -2.7264  -2.7192  -1.2902  -1.2884  -1.1727  -1.1721
     3.3153   3.3161   4.5040   4.5048

          k =-0.5751 0.0121 0.6414 (  3576 PWs)   bands (ev):

   -14.8815 -14.1874 -14.0467 -12.3831 -11.6082  -9.6976  -8.7841  -7.7787
    -4.2500  -4.0076  -3.8778  -2.9680  -2.2770  -1.2678   0.1387   0.6225
     1.7720   3.0507   5.9933   7.1433

          k =-0.5430-0.6741 0.0144 (  3580 PWs)   bands (ev):

   -15.1208 -14.2574 -14.2567 -11.8533 -11.8530  -9.1549  -9.1541  -7.7316
    -4.6313  -2.8304  -2.5136  -2.5127  -2.3083  -2.3074   0.5977   0.6020
     1.3155   1.3156   6.8847   6.8860

          k =-0.6081-0.6394 0.6094 (  3571 PWs)   bands (ev):

   -14.7238 -14.6274 -13.3939 -13.0162 -11.1097 -10.1281  -8.4756  -7.8913
    -4.6964  -3.8523  -3.4770  -3.0331  -2.3510  -1.7116  -0.2075   0.8363
     3.3373   3.4766   5.0644   5.5529

     the Fermi energy is     1.0095 ev

!    total energy              =     -90.57532786 Ry
     Harris-Foulkes estimate   =     -90.57532786 Ry
     estimated scf accuracy    <          4.5E-09 Ry

     The total energy is the sum of the following terms:

     one-electron contribution =     -57.83640284 Ry
     hartree contribution      =      38.47257995 Ry
     xc contribution           =     -27.26676788 Ry
     ewald contribution        =     -43.94795261 Ry
     smearing contrib. (-TS)   =       0.00321552 Ry

     convergence has been achieved in   7 iterations

     Forces acting on atoms (cartesian axes, Ry/au):

     atom    1 type  1   force =     0.00014973   -0.00008269   -0.00016715
     atom    2 type  1   force =     0.00021684    0.00000144   -0.00070020
     atom    3 type  1   force =    -0.00017532   -0.00004054   -0.00026216
     atom    4 type  1   force =    -0.00055463    0.00011077    0.00010728
     atom    5 type  1   force =     0.00034147    0.00009797    0.00013180
     atom    6 type  1   force =    -0.00009463    0.00024911    0.00060196
     atom    7 type  1   force =     0.00005106   -0.00015311    0.00003191
     atom    8 type  1   force =     0.00006548   -0.00018295    0.00025655

     Total force =     0.001317     Total SCF correction =     0.000041


     Computing stress (Cartesian axis) and pressure

          total   stress  (Ry/bohr**3)                   (kbar)     P=        9.31
   0.00004172  -0.00003316   0.00003879            6.14       -4.88        5.71
  -0.00003316   0.00002009  -0.00001444           -4.88        2.96       -2.12
   0.00003879  -0.00001444   0.00012813            5.71       -2.12       18.85


     number of scf cycles    =   2
     number of bfgs steps    =   1

     enthalpy old            =     -90.5747261845 Ry
     enthalpy new            =     -90.5752707868 Ry

     CASE: enthalpy_new < enthalpy_old

     new trust radius        =       0.0306909434 bohr
     new conv_thr            =            1.0E-10 Ry

     new unit-cell volume =    844.66616 a.u.^3 (   125.16661 Ang^3 )
     density =      1.27360 g/cm^3

CELL_PARAMETERS (bohr)
  12.447023262  -0.711720336   1.437072291
  -0.493468289   9.664686980  -0.631956188
   0.680951352  -0.391862416   7.141767926

ATOMIC_POSITIONS (crystal)
C             0.8752314448        0.9085994424        0.2517629599
C             0.3755510641        0.4080262629        0.2530567045
C             0.1254578978        0.6585422870        0.7522263230
C             0.6255589848        0.1584262617        0.7526091861
C             0.7502290585        1.0334533943        0.5019205340
C             0.2503583357        0.5332767917        0.5024466128
C             0.5005759432        0.2832842931        0.0028012875
C             0.0002882709       -0.2162287330        0.0016543922



     Writing output data file ./pp.save/
     NEW-OLD atomic charge density approx. for the potential
     extrapolated charge   32.19447, renormalised to   32.00000

     total cpu time spent up to now is        8.3 secs

     Self-consistent Calculation

     iteration #  1     ecut=    40.00 Ry     beta= 0.50
     Davidson diagonalization with overlap
     ethr =  1.00E-06,  avg # of iterations =  3.0

     total cpu time spent up to now is        8.8 secs

     total energy              =     -90.57468940 Ry
     Harris-Foulkes estimate   =     -90.32231522 Ry
     estimated scf accuracy    <       0.00067751 Ry

     iteration #  2     ecut=    40.00 Ry     beta= 0.50
     Davidson diagonalization with overlap
     ethr =  2.12E-06,  avg # of iterations =  3.0

     total cpu time spent up to now is        9.4 secs

     total energy              =     -90.57610931 Ry
     Harris-Foulkes estimate   =     -90.57632159 Ry
     estimated scf accuracy    <       0.00065606 Ry

     iteration #  3     ecut=    40.00 Ry     beta= 0.50
     Davidson diagonalization with overlap
     ethr =  2.05E-06,  avg # of iterations =  1.0

     total cpu time spent up to now is        9.6 secs

     total energy              =     -90.57598096 Ry
     Harris-Foulkes estimate   =     -90.57613165 Ry
     estimated scf accuracy    <       0.00023422 Ry

     iteration #  4     ecut=    40.00 Ry     beta= 0.50
     Davidson diagonalization with overlap
     ethr =  7.32E-07,  avg # of iterations =  2.0

     total cpu time spent up to now is       10.1 secs

     total energy              =     -90.57603852 Ry
     Harris-Foulkes estimate   =     -90.57603539 Ry
     estimated scf accuracy    <       0.00000519 Ry

     iteration #  5     ecut=    40.00 Ry     beta= 0.50
     Davidson diagonalization with overlap
     ethr =  1.62E-08,  avg # of iterations =  2.2

     total cpu time spent up to now is       10.5 secs

     total energy              =     -90.57603280 Ry
     Harris-Foulkes estimate   =     -90.57604021 Ry
     estimated scf accuracy    <       0.00001391 Ry

     iteration #  6     ecut=    40.00 Ry     beta= 0.50
     Davidson diagonalization with overlap
     ethr =  1.62E-08,  avg # of iterations =  2.0

     total cpu time spent up to now is       10.9 secs

     total energy              =     -90.57603403 Ry
     Harris-Foulkes estimate   =     -90.57603439 Ry
     estimated scf accuracy    <       0.00000062 Ry

     iteration #  7     ecut=    40.00 Ry     beta= 0.50
     Davidson diagonalization with overlap
     ethr =  1.92E-09,  avg # of iterations =  2.0

     total cpu time spent up to now is       11.3 secs

     total energy              =     -90.57603414 Ry
     Harris-Foulkes estimate   =     -90.57603414 Ry
     estimated scf accuracy    <          4.6E-10 Ry

     iteration #  8     ecut=    40.00 Ry     beta= 0.50
     Davidson diagonalization with overlap
     ethr =  1.44E-12,  avg # of iterations =  4.1

     total cpu time spent up to now is       12.1 secs

     total energy              =     -90.57603414 Ry
     Harris-Foulkes estimate   =     -90.57603414 Ry
     estimated scf accuracy    <          5.5E-10 Ry

     iteration #  9     ecut=    40.00 Ry     beta= 0.50
     Davidson diagonalization with overlap
     ethr =  1.44E-12,  avg # of iterations =  2.0

     total cpu time spent up to now is       12.5 secs

     End of self-consistent calculation

          k = 0.0000 0.0000 0.0000 (  3569 PWs)   bands (ev):

   -15.2472 -14.2282 -14.2280 -11.9212 -11.9212  -9.1892  -9.1890  -7.7731
    -3.8750  -3.0862  -3.0858  -2.9003  -2.3360  -2.3353   0.5018   0.5044
     1.5391   1.5398   5.7120   6.8944

          k =-0.0664 0.0354 0.5925 (  3570 PWs)   bands (ev):

   -14.7458 -14.7091 -13.4896 -12.9935 -11.1172 -10.1783  -8.5191  -7.9318
    -4.6231  -3.9804  -3.2162  -3.0927  -2.4363  -1.2975  -0.8527   0.7591
     2.8021   3.4429   5.2189   5.4673

          k =-0.0335-0.6514-0.0325 (  3586 PWs)   bands (ev):

   -14.9442 -14.9425 -13.2223 -13.2214 -10.5116 -10.5105  -8.1740  -8.1737
    -4.0260  -4.0247  -2.8214  -2.8135  -1.3340  -1.3337  -0.8028  -0.8017
     3.3633   3.3645   4.1605   4.1618

          k =-0.0999-0.6160 0.5599 (  3596 PWs)   bands (ev):

   -14.9076 -14.2512 -14.0560 -12.4061 -11.6807  -9.7565  -8.8115  -7.8154
    -4.3279  -4.0492  -4.0425  -2.8851  -2.5274  -1.3023   0.1536   0.3968
     2.2672   2.9847   6.4080   7.0615

          k =-0.5096-0.0229 0.0473 (  3588 PWs)   bands (ev):

   -14.9708 -14.9692 -13.1827 -13.1818 -10.5305 -10.5294  -8.1673  -8.1671
    -3.8014  -3.8002  -2.7937  -2.7863  -1.3250  -1.3246  -1.2124  -1.2114
     3.2973   3.2984   4.4526   4.4540

          k =-0.5759 0.0124 0.6398 (  3576 PWs)   bands (ev):

   -14.9225 -14.2354 -14.0796 -12.4256 -11.6431  -9.7354  -8.8248  -7.8185
    -4.2796  -4.0190  -3.9183  -3.0137  -2.3115  -1.3315   0.1116   0.5787
     1.7378   2.9784   5.9532   7.0818

          k =-0.5431-0.6743 0.0148 (  3580 PWs)   bands (ev):

   -15.1507 -14.2925 -14.2924 -11.8977 -11.8977  -9.1981  -9.1979  -7.7717
    -4.6607  -2.9042  -2.5536  -2.5534  -2.3564  -2.3561   0.5753   0.5780
     1.2686   1.2688   6.8633   6.8640

          k =-0.6094-0.6389 0.6072 (  3571 PWs)   bands (ev):

   -14.7697 -14.6636 -13.4401 -13.0486 -11.1488 -10.1663  -8.5138  -7.9324
    -4.7132  -3.8877  -3.5207  -3.0797  -2.3668  -1.7571  -0.2421   0.7617
     3.2953   3.4339   5.0222   5.4957

     the Fermi energy is     0.9308 ev

!    total energy              =     -90.57603414 Ry
     Harris-Foulkes estimate   =     -90.57603414 Ry
     estimated scf accuracy    <          3.8E-11 Ry

     The total energy is the sum of the following terms:

     one-electron contribution =     -58.15721738 Ry
     hartree contribution      =      38.58080308 Ry
     xc contribution           =     -27.25890257 Ry
     ewald contribution        =     -43.74425542 Ry
     smearing contrib. (-TS)   =       0.00353814 Ry

     convergence has been achieved in   9 iterations

     Forces acting on atoms (cartesian axes, Ry/au):

     atom    1 type  1   force =     0.00011142   -0.00002639   -0.00006886
     atom    2 type  1   force =    -0.00018362    0.00030201   -0.00015908
     atom    3 type  1   force =    -0.00036052    0.00014761    0.00007126
     atom    4 type  1   force =     0.00007659   -0.00031275   -0.00043865
     atom    5 type  1   force =    -0.00007844    0.00033470    0.00045907
     atom    6 type  1   force =     0.00045836   -0.00023488   -0.00013571
     atom    7 type  1   force =    -0.00005233   -0.00006568    0.00005857
     atom    8 type  1   force =     0.00002853   -0.00014463    0.00021341

     Total force =     0.001145     Total SCF correction =     0.000009


     Computing stress (Cartesian axis) and pressure

          total   stress  (Ry/bohr**3)                   (kbar)     P=        7.30
   0.00003055  -0.00002462   0.00003684            4.49       -3.62        5.42
  -0.00002462   0.00001227  -0.00001354           -3.62        1.81       -1.99
   0.00003684  -0.00001354   0.00010599            5.42       -1.99       15.59


     number of scf cycles    =   3
     number of bfgs steps    =   2

     enthalpy old            =     -90.5752707868 Ry
     enthalpy new            =     -90.5759767253 Ry

     CASE: enthalpy_new < enthalpy_old

     new trust radius        =       0.0458944035 bohr
     new conv_thr            =            1.0E-10 Ry

     new unit-cell volume =    852.10281 a.u.^3 (   126.26861 Ang^3 )
     density =      1.26248 g/cm^3

CELL_PARAMETERS (bohr)
  12.471966964  -0.729839766   1.492523255
  -0.508226712   9.671068464  -0.655589403
   0.707959002  -0.405901143   7.193516569

ATOMIC_POSITIONS (crystal)
C             0.8752426501        0.9086020733        0.2517482744
C             0.3754927662        0.4081357524        0.2530336044
C             0.1253897387        0.6585633748        0.7522219723
C             0.6255561110        0.1583418618        0.7524533372
C             0.7502491122        1.0335285932        0.5020485950
C             0.2504564794        0.5332220539        0.5024077786
C             0.5005600027        0.2832686664        0.0028460488
C             0.0003041397       -0.2162823758        0.0017183893



     Writing output data file ./pp.save/
     NEW-OLD atomic charge density approx. for the potential
     extrapolated charge   32.27927, renormalised to   32.00000

     total cpu time spent up to now is       12.6 secs

     Self-consistent Calculation

     iteration #  1     ecut=    40.00 Ry     beta= 0.50
     Davidson diagonalization with overlap
     ethr =  1.00E-06,  avg # of iterations =  4.0

     total cpu time spent up to now is       13.3 secs

     total energy              =     -90.57411332 Ry
     Harris-Foulkes estimate   =     -90.20928147 Ry
     estimated scf accuracy    <       0.00136815 Ry

     iteration #  2     ecut=    40.00 Ry     beta= 0.50
     Davidson diagonalization with overlap
     ethr =  4.28E-06,  avg # of iterations =  3.0

     total cpu time spent up to now is       13.8 secs

     total energy              =     -90.57709405 Ry
     Harris-Foulkes estimate   =     -90.57755384 Ry
     estimated scf accuracy    <       0.00144790 Ry

     iteration #  3     ecut=    40.00 Ry     beta= 0.50
     Davidson diagonalization with overlap
     ethr =  4.28E-06,  avg # of iterations =  1.0

     total cpu time spent up to now is       14.1 secs

     total energy              =     -90.57677319 Ry
     Harris-Foulkes estimate   =     -90.57714120 Ry
     estimated scf accuracy    <       0.00052675 Ry

     iteration #  4     ecut=    40.00 Ry     beta= 0.50
     Davidson diagonalization with overlap
     ethr =  1.65E-06,  avg # of iterations =  2.0

     total cpu time spent up to now is       14.6 secs

     total energy              =     -90.57692460 Ry
     Harris-Foulkes estimate   =     -90.57694456 Ry
     estimated scf accuracy    <       0.00005353 Ry

     iteration #  5     ecut=    40.00 Ry     beta= 0.50
     Davidson diagonalization with overlap
     ethr =  1.67E-07,  avg # of iterations =  1.0

     total cpu time spent up to now is       14.9 secs

     total energy              =     -90.57692091 Ry
     Harris-Foulkes estimate   =     -90.57692767 Ry
     estimated scf accuracy    <       0.00001410 Ry

     iteration #  6     ecut=    40.00 Ry     beta= 0.50
     Davidson diagonalization with overlap
     ethr =  4.41E-08,  avg # of iterations =  2.0

     total cpu time spent up to now is       15.3 secs

     total energy              =     -90.57692138 Ry
     Harris-Foulkes estimate   =     -90.57692232 Ry
     estimated scf accuracy    <       0.00000132 Ry

     iteration #  7     ecut=    40.00 Ry     beta= 0.50
     Davidson diagonalization with overlap
     ethr =  4.13E-09,  avg # of iterations =  2.0

     total cpu time spent up to now is       15.7 secs

     total energy              =     -90.57692169 Ry
     Harris-Foulkes estimate   =     -90.57692213 Ry
     estimated scf accuracy    <       0.00000063 Ry

     iteration #  8     ecut=    40.00 Ry     beta= 0.50
     Davidson diagonalization with overlap
     ethr =  1.98E-09,  avg # of iterations =  2.0

     total cpu time spent up to now is       16.2 secs

     total energy              =     -90.57692187 Ry
     Harris-Foulkes estimate   =     -90.57692188 Ry
     estimated scf accuracy    <       0.00000005 Ry

     iteration #  9     ecut=    40.00 Ry     beta= 0.50
     Davidson diagonalization with overlap
     ethr =  1.70E-10,  avg # of iterations =  1.0

     total cpu time spent up to now is       16.5 secs

     total energy              =     -90.57692186 Ry
     Harris-Foulkes estimate   =     -90.57692187 Ry
     estimated scf accuracy    <       0.00000003 Ry

     iteration # 10     ecut=    40.00 Ry     beta= 0.50
     Davidson diagonalization with overlap
     ethr =  8.10E-11,  avg # of iterations =  2.0

     total cpu time spent up to now is       16.9 secs

     End of self-consistent calculation

          k = 0.0000 0.0000 0.0000 (  3569 PWs)   bands (ev):

   -15.2891 -14.2794 -14.2774 -11.9844 -11.9835  -9.2508  -9.2487  -7.8292
    -3.9218  -3.1374  -3.1356  -3.0052  -2.4105  -2.4084   0.4712   0.4736
     1.4759   1.4771   5.6383   6.8694

          k =-0.0683 0.0363 0.5888 (  3570 PWs)   bands (ev):

   -14.7968 -14.7743 -13.5548 -13.0393 -11.1720 -10.2318  -8.5725  -7.9892
    -4.6480  -4.0416  -3.2729  -3.1552  -2.4564  -1.3620  -0.8985   0.6535
     2.7446   3.3840   5.1611   5.3909

          k =-0.0341-0.6512-0.0334 (  3586 PWs)   bands (ev):

   -14.9886 -14.9871 -13.2826 -13.2754 -10.5785 -10.5705  -8.2314  -8.2312
    -4.0709  -4.0697  -2.9175  -2.9103  -1.3867  -1.3792  -0.8669  -0.8591
     3.3366   3.3458   4.0888   4.0988

          k =-0.1024-0.6148 0.5554 (  3596 PWs)   bands (ev):

   -14.9661 -14.3189 -14.1025 -12.4658 -11.7292  -9.8090  -8.8685  -7.8711
    -4.3699  -4.0990  -4.0643  -2.9519  -2.5744  -1.3930   0.1122   0.3417
     2.2146   2.8841   6.3505   6.9791

          k =-0.5090-0.0234 0.0488 (  3588 PWs)   bands (ev):

   -15.0149 -15.0134 -13.2436 -13.2363 -10.5972 -10.5893  -8.2248  -8.2246
    -3.8487  -3.8476  -2.8893  -2.8826  -1.3782  -1.3707  -1.2711  -1.2639
     3.2713   3.2804   4.3778   4.3882

          k =-0.5773 0.0129 0.6375 (  3576 PWs)   bands (ev):

   -14.9808 -14.3033 -14.1259 -12.4853 -11.6920  -9.7881  -8.8817  -7.8742
    -4.3215  -4.0344  -3.9763  -3.0789  -2.3607  -1.4219   0.0751   0.5174
     1.6909   2.8771   5.8995   6.9978

          k =-0.5431-0.6746 0.0154 (  3580 PWs)   bands (ev):

   -15.1931 -14.3435 -14.3416 -11.9606 -11.9597  -9.2599  -9.2577  -7.8278
    -4.7030  -3.0098  -2.6127  -2.6106  -2.4254  -2.4233   0.5443   0.5467
     1.2030   1.2042   6.8362   6.8393

          k =-0.6114-0.6383 0.6041 (  3571 PWs)   bands (ev):

   -14.8349 -14.7149 -13.5053 -13.0942 -11.2037 -10.2197  -8.5672  -7.9900
    -4.7367  -3.9385  -3.5832  -3.1458  -2.3881  -1.8215  -0.2903   0.6562
     3.2376   3.3760   4.9650   5.4171

     the Fermi energy is     0.8329 ev

!    total energy              =     -90.57692186 Ry
     Harris-Foulkes estimate   =     -90.57692186 Ry
     estimated scf accuracy    <          2.6E-11 Ry

     The total energy is the sum of the following terms:

     one-electron contribution =     -58.65504678 Ry
     hartree contribution      =      38.75907377 Ry
     xc contribution           =     -27.25136550 Ry
     ewald contribution        =     -43.43321798 Ry
     smearing contrib. (-TS)   =       0.00363463 Ry

     convergence has been achieved in  10 iterations

     Forces acting on atoms (cartesian axes, Ry/au):

     atom    1 type  1   force =    -0.00057196    0.00056502    0.00073885
     atom    2 type  1   force =     0.00169918   -0.00130768   -0.00200483
     atom    3 type  1   force =     0.00124389   -0.00113702   -0.00145335
     atom    4 type  1   force =    -0.00220792    0.00171988    0.00216904
     atom    5 type  1   force =     0.00183345   -0.00140543   -0.00174959
     atom    6 type  1   force =    -0.00219408    0.00192970    0.00247137
     atom    7 type  1   force =     0.00052817   -0.00053667   -0.00066702
     atom    8 type  1   force =    -0.00033072    0.00017221    0.00049552

     Total force =     0.007193     Total SCF correction =     0.000008


     Computing stress (Cartesian axis) and pressure

          total   stress  (Ry/bohr**3)                   (kbar)     P=        5.54
   0.00002279  -0.00001865   0.00003938            3.35       -2.74        5.79
  -0.00001865   0.00000652  -0.00001680           -2.74        0.96       -2.47
   0.00003938  -0.00001680   0.00008375            5.79       -2.47       12.32


     number of scf cycles    =   4
     number of bfgs steps    =   3

     enthalpy old            =     -90.5759767253 Ry
     enthalpy new            =     -90.5768639353 Ry

     CASE: enthalpy_new < enthalpy_old

     new trust radius        =       0.0685172996 bohr
     new conv_thr            =       0.0000000002 Ry

     new unit-cell volume =    863.02618 a.u.^3 (   127.88728 Ang^3 )
     density =      1.24650 g/cm^3

CELL_PARAMETERS (bohr)
  12.509012431  -0.756766338   1.577774441
  -0.530190196   9.679847565  -0.691977832
   0.749659950  -0.427590003   7.270438857

ATOMIC_POSITIONS (crystal)
C             0.8751949606        0.9086752120        0.2518718180
C             0.3755861593        0.4081150662        0.2526472898
C             0.1254362655        0.6584483300        0.7519348922
C             0.6253318346        0.1584486079        0.7526866009
C             0.7504617589        1.0334438005        0.5018502264
C             0.2503543778        0.5333888664        0.5028302336
C             0.5005927389        0.2831877078        0.0027810457
C             0.0002929046       -0.2163275907        0.0018758934



     Writing output data file ./pp.save/
     NEW-OLD atomic charge density approx. for the potential
     extrapolated charge   32.40502, renormalised to   32.00000

     total cpu time spent up to now is       17.0 secs

     Self-consistent Calculation

     iteration #  1     ecut=    40.00 Ry     beta= 0.50
     Davidson diagonalization with overlap
     ethr =  1.00E-06,  avg # of iterations =  4.0

     total cpu time spent up to now is       17.9 secs

     total energy              =     -90.57214905 Ry
     Harris-Foulkes estimate   =     -90.03712470 Ry
     estimated scf accuracy    <       0.00283463 Ry

     iteration #  2     ecut=    40.00 Ry     beta= 0.50
     Davidson diagonalization with overlap
     ethr =  8.86E-06,  avg # of iterations =  3.0

     total cpu time spent up to now is       18.5 secs

     total energy              =     -90.57853316 Ry
     Harris-Foulkes estimate   =     -90.57954662 Ry
     estimated scf accuracy    <       0.00324764 Ry

     iteration #  3     ecut=    40.00 Ry     beta= 0.50
     Davidson diagonalization with overlap
     ethr =  8.86E-06,  avg # of iterations =  1.0

     total cpu time spent up to now is       18.8 secs

     total energy              =     -90.57780729 Ry
     Harris-Foulkes estimate   =     -90.57863581 Ry
     estimated scf accuracy    <       0.00120563 Ry

     iteration #  4     ecut=    40.00 Ry     beta= 0.50
     Davidson diagonalization with overlap
     ethr =  3.77E-06,  avg # of iterations =  2.0

     total cpu time spent up to now is       19.3 secs

     total energy              =     -90.57813964 Ry
     Harris-Foulkes estimate   =     -90.57817053 Ry
     estimated scf accuracy    <       0.00008757 Ry

     iteration #  5     ecut=    40.00 Ry     beta= 0.50
     Davidson diagonalization with overlap
     ethr =  2.74E-07,  avg # of iterations =  1.0

     total cpu time spent up to now is       19.7 secs

     total energy              =     -90.57813388 Ry
     Harris-Foulkes estimate   =     -90.57814455 Ry
     estimated scf accuracy    <       0.00002585 Ry

     iteration #  6     ecut=    40.00 Ry     beta= 0.50
     Davidson diagonalization with overlap
     ethr =  8.08E-08,  avg # of iterations =  1.9

     total cpu time spent up to now is       20.1 secs

     total energy              =     -90.57813222 Ry
     Harris-Foulkes estimate   =     -90.57813570 Ry
     estimated scf accuracy    <       0.00000486 Ry

     iteration #  7     ecut=    40.00 Ry     beta= 0.50
     Davidson diagonalization with overlap
     ethr =  1.52E-08,  avg # of iterations =  2.0

     total cpu time spent up to now is       20.6 secs

     total energy              =     -90.57813355 Ry
     Harris-Foulkes estimate   =     -90.57813463 Ry
     estimated scf accuracy    <       0.00000162 Ry

     iteration #  8     ecut=    40.00 Ry     beta= 0.50
     Davidson diagonalization with overlap
     ethr =  5.06E-09,  avg # of iterations =  2.0

     total cpu time spent up to now is       21.1 secs

     total energy              =     -90.57813396 Ry
     Harris-Foulkes estimate   =     -90.57813397 Ry
     estimated scf accuracy    <       0.00000006 Ry

     iteration #  9     ecut=    40.00 Ry     beta= 0.50
     Davidson diagonalization with overlap
     ethr =  1.86E-10,  avg # of iterations =  1.0

     total cpu time spent up to now is       21.5 secs

     total energy              =     -90.57813394 Ry
     Harris-Foulkes estimate   =     -90.57813396 Ry
     estimated scf accuracy    <       0.00000003 Ry

     iteration # 10     ecut=    40.00 Ry     beta= 0.50
     Davidson diagonalization with overlap
     ethr =  7.92E-11,  avg # of iterations =  2.0

     total cpu time spent up to now is       22.0 secs

     total energy              =     -90.57813395 Ry
     Harris-Foulkes estimate   =     -90.57813395 Ry
     estimated scf accuracy    <          5.7E-10 Ry

     iteration # 11     ecut=    40.00 Ry     beta= 0.50
     Davidson diagonalization with overlap
     ethr =  1.78E-12,  avg # of iterations =  3.0

     total cpu time spent up to now is       22.7 secs

     End of self-consistent calculation

          k = 0.0000 0.0000 0.0000 (  3569 PWs)   bands (ev):

   -15.3493 -14.3512 -14.3493 -12.0725 -12.0720  -9.3355  -9.3335  -7.9079
    -3.9900  -3.2099  -3.2081  -3.1557  -2.5150  -2.5132   0.4319   0.4321
     1.3888   1.3897   5.5307   6.8365

          k =-0.0713 0.0378 0.5834 (  3570 PWs)   bands (ev):

   -14.8695 -14.8669 -13.6471 -13.1040 -11.2490 -10.3069  -8.6475  -8.0699
    -4.6844  -4.1291  -3.3554  -3.2443  -2.4846  -1.4534  -0.9627   0.5040
     2.6663   3.3019   5.0823   5.2895

          k =-0.0350-0.6509-0.0347 (  3586 PWs)   bands (ev):

   -15.0523 -15.0510 -13.3699 -13.3503 -10.6741 -10.6527  -8.3118  -8.3116
    -4.1359  -4.1348  -3.0551  -3.0489  -1.4607  -1.4411  -0.9596  -0.9387
     3.3008   3.3258   3.9889   4.0159

          k =-0.1063-0.6131 0.5488 (  3596 PWs)   bands (ev):

   -15.0496 -14.4149 -14.1688 -12.5499 -11.7976  -9.8826  -8.9486  -7.9494
    -4.4307  -4.1802  -4.0860  -3.0474  -2.6414  -1.5229   0.0528   0.2668
     2.1421   2.7444   6.2743   6.8658

          k =-0.5082-0.0242 0.0510 (  3588 PWs)   bands (ev):

   -15.0782 -15.0769 -13.3316 -13.3120 -10.6926 -10.6713  -8.3053  -8.3051
    -3.9174  -3.9164  -3.0262  -3.0205  -1.4532  -1.4335  -1.3557  -1.3361
     3.2370   3.2617   4.2732   4.3011

          k =-0.5795 0.0136 0.6344 (  3576 PWs)   bands (ev):

   -15.0639 -14.3995 -14.1919 -12.5691 -11.7611  -9.8619  -8.9616  -7.9524
    -4.3819  -4.0600  -4.0562  -3.1719  -2.4308  -1.5512   0.0242   0.4321
     1.6268   2.7362   5.8291   6.8822

          k =-0.5432-0.6751 0.0163 (  3580 PWs)   bands (ev):

   -15.2540 -14.4150 -14.4132 -12.0483 -12.0479  -9.3448  -9.3427  -7.9064
    -4.7646  -3.1614  -2.6976  -2.6957  -2.5202  -2.5182   0.5041   0.5043
     1.1130   1.1135   6.8058   6.8087

          k =-0.6145-0.6373 0.5997 (  3571 PWs)   bands (ev):

   -14.9275 -14.7881 -13.5975 -13.1587 -11.2806 -10.2946  -8.6421  -8.0708
    -4.7705  -4.0116  -3.6731  -3.2410  -2.4184  -1.9122  -0.3581   0.5072
     3.1591   3.2956   4.8879   5.3115

     the Fermi energy is     0.7184 ev

!    total energy              =     -90.57813395 Ry
     Harris-Foulkes estimate   =     -90.57813395 Ry
     estimated scf accuracy    <          2.8E-11 Ry

     The total energy is the sum of the following terms:

     one-electron contribution =     -59.45073277 Ry
     hartree contribution      =      39.06070535 Ry
     xc contribution           =     -27.24666404 Ry
     ewald contribution        =     -42.94503526 Ry
     smearing contrib. (-TS)   =       0.00359276 Ry

     convergence has been achieved in  11 iterations

     Forces acting on atoms (cartesian axes, Ry/au):

     atom    1 type  1   force =     0.00275441   -0.00218088   -0.00272488
     atom    2 type  1   force =    -0.00340950    0.00286937    0.00363547
     atom    3 type  1   force =    -0.00418858    0.00345932    0.00458631
     atom    4 type  1   force =     0.00516274   -0.00422288   -0.00549493
     atom    5 type  1   force =    -0.00535136    0.00436575    0.00573152
     atom    6 type  1   force =     0.00560343   -0.00461800   -0.00611867
     atom    7 type  1   force =    -0.00143582    0.00111788    0.00129382
     atom    8 type  1   force =     0.00086468   -0.00079056   -0.00090864

     Total force =     0.018867     Total SCF correction =     0.000005


     Computing stress (Cartesian axis) and pressure

          total   stress  (Ry/bohr**3)                   (kbar)     P=        4.74
   0.00002332  -0.00001917   0.00004925            3.43       -2.82        7.25
  -0.00001917   0.00000602  -0.00002607           -2.82        0.89       -3.83
   0.00004925  -0.00002607   0.00006731            7.25       -3.83        9.90


     number of scf cycles    =   5
     number of bfgs steps    =   4

     enthalpy old            =     -90.5768639353 Ry
     enthalpy new            =     -90.5780752808 Ry

     CASE: enthalpy_new < enthalpy_old

     new trust radius        =       0.1020391110 bohr
     new conv_thr            =       0.0000000006 Ry

     new unit-cell volume =    879.36982 a.u.^3 (   130.30916 Ang^3 )
     density =      1.22333 g/cm^3

CELL_PARAMETERS (bohr)
  12.565637238  -0.798037826   1.707041030
  -0.563826064   9.693273780  -0.747385654
   0.813077488  -0.460754144   7.385299244

ATOMIC_POSITIONS (crystal)
C             0.8752161578        0.9086937194        0.2518769319
C             0.3756233372        0.4081838276        0.2522923747
C             0.1253747518        0.6584119720        0.7517922040
C             0.6251604923        0.1584536384        0.7527159055
C             0.7506038559        1.0334822485        0.5018980950
C             0.2503710142        0.5334650488        0.5030942833
C             0.5005967764        0.2831124158        0.0027634532
C             0.0003046145       -0.2164228704        0.0020447524



     Writing output data file ./pp.save/
     NEW-OLD atomic charge density approx. for the potential
     extrapolated charge   32.59473, renormalised to   32.00000

     total cpu time spent up to now is       22.7 secs

     Self-consistent Calculation

     iteration #  1     ecut=    40.00 Ry     beta= 0.50
     Davidson diagonalization with overlap
     ethr =  1.00E-06,  avg # of iterations =  4.0

     total cpu time spent up to now is       23.8 secs

     total energy              =     -90.56691660 Ry
     Harris-Foulkes estimate   =     -89.76726578 Ry
     estimated scf accuracy    <       0.00604575 Ry

     iteration #  2     ecut=    40.00 Ry     beta= 0.50
     Davidson diagonalization with overlap
     ethr =  1.89E-05,  avg # of iterations =  3.0

     total cpu time spent up to now is       24.5 secs

     total energy              =     -90.58098123 Ry
     Harris-Foulkes estimate   =     -90.58321243 Ry
     estimated scf accuracy    <       0.00719527 Ry

     iteration #  3     ecut=    40.00 Ry     beta= 0.50
     Davidson diagonalization with overlap
     ethr =  1.89E-05,  avg # of iterations =  1.0

     total cpu time spent up to now is       24.9 secs

     total energy              =     -90.57933109 Ry
     Harris-Foulkes estimate   =     -90.58120251 Ry
     estimated scf accuracy    <       0.00271483 Ry

     iteration #  4     ecut=    40.00 Ry     beta= 0.50
     Davidson diagonalization with overlap
     ethr =  8.48E-06,  avg # of iterations =  2.0

     total cpu time spent up to now is       25.5 secs

     total energy              =     -90.58005232 Ry
     Harris-Foulkes estimate   =     -90.58015004 Ry
     estimated scf accuracy    <       0.00019618 Ry

     iteration #  5     ecut=    40.00 Ry     beta= 0.50
     Davidson diagonalization with overlap
     ethr =  6.13E-07,  avg # of iterations =  2.0

     total cpu time spent up to now is       26.0 secs

     total energy              =     -90.58006417 Ry
     Harris-Foulkes estimate   =     -90.58007380 Ry
     estimated scf accuracy    <       0.00001640 Ry

     iteration #  6     ecut=    40.00 Ry     beta= 0.50
     Davidson diagonalization with overlap
     ethr =  5.13E-08,  avg # of iterations =  2.0

     total cpu time spent up to now is       26.7 secs

     total energy              =     -90.58006746 Ry
     Harris-Foulkes estimate   =     -90.58006730 Ry
     estimated scf accuracy    <       0.00000024 Ry

     iteration #  7     ecut=    40.00 Ry     beta= 0.50
     Davidson diagonalization with overlap
     ethr =  7.39E-10,  avg # of iterations =  2.5

     total cpu time spent up to now is       27.4 secs

     total energy              =     -90.58006727 Ry
     Harris-Foulkes estimate   =     -90.58006759 Ry
     estimated scf accuracy    <       0.00000048 Ry

     iteration #  8     ecut=    40.00 Ry     beta= 0.50
     Davidson diagonalization with overlap
     ethr =  7.39E-10,  avg # of iterations =  2.0

     total cpu time spent up to now is       28.0 secs

     total energy              =     -90.58006739 Ry
     Harris-Foulkes estimate   =     -90.58006739 Ry
     estimated scf accuracy    <       0.00000001 Ry

     iteration #  9     ecut=    40.00 Ry     beta= 0.50
     Davidson diagonalization with overlap
     ethr =  4.48E-11,  avg # of iterations =  1.0

     total cpu time spent up to now is       28.4 secs

     total energy              =     -90.58006739 Ry
     Harris-Foulkes estimate   =     -90.58006739 Ry
     estimated scf accuracy    <          9.7E-09 Ry

     iteration # 10     ecut=    40.00 Ry     beta= 0.50
     Davidson diagonalization with overlap
     ethr =  3.03E-11,  avg # of iterations =  1.6

     total cpu time spent up to now is       28.9 secs

     total energy              =     -90.58006739 Ry
     Harris-Foulkes estimate   =     -90.58006739 Ry
     estimated scf accuracy    <          2.0E-09 Ry

     iteration # 11     ecut=    40.00 Ry     beta= 0.50
     Davidson diagonalization with overlap
     ethr =  6.36E-12,  avg # of iterations =  2.0

     total cpu time spent up to now is       29.6 secs

     End of self-consistent calculation

          k = 0.0000 0.0000 0.0000 (  3569 PWs)   bands (ev):

   -15.4388 -14.4587 -14.4526 -12.1995 -12.1989  -9.4595  -9.4527  -8.0216
    -4.0903  -3.3698  -3.3173  -3.3115  -2.6667  -2.6603   0.3706   0.3745
     1.2646   1.2651   5.3733   6.7867

          k =-0.0757 0.0400 0.5758 (  3570 PWs)   bands (ev):

   -14.9999 -14.9756 -13.7789 -13.1995 -11.3601 -10.4164  -8.7564  -8.1864
    -4.7412  -4.2538  -3.4777  -3.3711  -2.5295  -1.5836  -1.0556   0.2916
     2.5552   3.1806   4.9669   5.1506

          k =-0.0363-0.6506-0.0366 (  3586 PWs)   bands (ev):

   -15.1468 -15.1456 -13.4920 -13.4634 -10.8064 -10.7750  -8.4277  -8.4274
    -4.2308  -4.2298  -3.2510  -3.2462  -1.5632  -1.5338  -1.0887  -1.0582
     3.2523   3.2888   3.8539   3.8934

          k =-0.1120-0.6106 0.5392 (  3596 PWs)   bands (ev):

   -15.1704 -14.5520 -14.2662 -12.6706 -11.8980  -9.9893  -9.0644  -8.0628
    -4.5208  -4.2967  -4.1213  -3.1841  -2.7385  -1.7096  -0.0386   0.1621
     2.0369   2.5479   6.1658   6.7019

          k =-0.5070-0.0253 0.0542 (  3588 PWs)   bands (ev):

   -15.1720 -15.1709 -13.4549 -13.4262 -10.8246 -10.7933  -8.4213  -8.4210
    -4.0179  -4.0170  -3.2212  -3.2168  -1.5572  -1.5278  -1.4730  -1.4443
     3.1907   3.2269   4.1312   4.1720

          k =-0.5827 0.0147 0.6300 (  3576 PWs)   bands (ev):

   -15.1840 -14.5371 -14.2888 -12.6896 -11.8624  -9.9691  -9.0771  -8.0657
    -4.4715  -4.1806  -4.0920  -3.3050  -2.5327  -1.7368  -0.0535   0.3111
     1.5345   2.5379   5.7294   6.7150

          k =-0.5434-0.6759 0.0177 (  3580 PWs)   bands (ev):

   -15.3445 -14.5221 -14.5160 -12.1749 -12.1743  -9.4690  -9.4622  -8.0200
    -4.8545  -3.3773  -2.8268  -2.8204  -2.6541  -2.6475   0.4408   0.4451
     0.9839   0.9854   6.7556   6.7655

          k =-0.6190-0.6359 0.5934 (  3571 PWs)   bands (ev):

   -15.0605 -14.8950 -13.7293 -13.2537 -11.3917 -10.4038  -8.7509  -8.1875
    -4.8227  -4.1172  -3.8020  -3.3795  -2.4671  -2.0406  -0.4567   0.2957
     3.0472   3.1767   4.7772   5.1638

     the Fermi energy is     0.5909 ev

!    total energy              =     -90.58006739 Ry
     Harris-Foulkes estimate   =     -90.58006739 Ry
     estimated scf accuracy    <          1.9E-11 Ry

     The total energy is the sum of the following terms:

     one-electron contribution =     -60.68646543 Ry
     hartree contribution      =      39.54041091 Ry
     xc contribution           =     -27.24242319 Ry
     ewald contribution        =     -42.19558727 Ry
     smearing contrib. (-TS)   =       0.00399759 Ry

     convergence has been achieved in  11 iterations

     Forces acting on atoms (cartesian axes, Ry/au):

     atom    1 type  1   force =     0.00321849   -0.00255258   -0.00311060
     atom    2 type  1   force =    -0.00580503    0.00477177    0.00650741
     atom    3 type  1   force =    -0.00519425    0.00440918    0.00602825
     atom    4 type  1   force =     0.00850337   -0.00674955   -0.00877969
     atom    5 type  1   force =    -0.00760181    0.00595916    0.00785720
     atom    6 type  1   force =     0.00838634   -0.00703153   -0.00953347
     atom    7 type  1   force =    -0.00246367    0.00201292    0.00222048
     atom    8 type  1   force =     0.00095656   -0.00081936   -0.00118958

     Total force =     0.028050     Total SCF correction =     0.000003


     Computing stress (Cartesian axis) and pressure

          total   stress  (Ry/bohr**3)                   (kbar)     P=        4.16
   0.00002582  -0.00002062   0.00006455            3.80       -3.03        9.50
  -0.00002062   0.00000743  -0.00003868           -3.03        1.09       -5.69
   0.00006455  -0.00003868   0.00005162            9.50       -5.69        7.59


     number of scf cycles    =   6
     number of bfgs steps    =   5

     enthalpy old            =     -90.5780752808 Ry
     enthalpy new            =     -90.5800076077 Ry

     CASE: enthalpy_new < enthalpy_old


     WARNING: bfgs curvature condition failed, Theta= 0.389
     new trust radius        =       0.1514284035 bohr
     new conv_thr            =       0.0000000010 Ry

     new unit-cell volume =    903.75275 a.u.^3 (   133.92234 Ang^3 )
     density =      1.19033 g/cm^3

CELL_PARAMETERS (bohr)
  12.648537545  -0.858448236   1.898351156
  -0.613121616   9.712370095  -0.828893113
   0.906684566  -0.509332462   7.558572625

ATOMIC_POSITIONS (crystal)
C             0.8752898086        0.9086789944        0.2517907900
C             0.3757416045        0.4082303388        0.2515935060
C             0.1252310393        0.6583997634        0.7516384325
C             0.6248202370        0.1585269243        0.7529077674
C             0.7508215414        1.0335558230        0.5019840526
C             0.2503671717        0.5336172847        0.5036062792
C             0.5006356491        0.2829624897        0.0026844640
C             0.0003439484       -0.2165916184        0.0022727083



     Writing output data file ./pp.save/
     NEW-OLD atomic charge density approx. for the potential
     extrapolated charge   32.86334, renormalised to   32.00000

     total cpu time spent up to now is       29.7 secs

     Self-consistent Calculation

     iteration #  1     ecut=    40.00 Ry     beta= 0.50
     Davidson diagonalization with overlap
     c_bands:  2 eigenvalues not converged
     ethr =  1.00E-06,  avg # of iterations =  8.0

     total cpu time spent up to now is       31.5 secs

     total energy              =     -90.55370100 Ry
     Harris-Foulkes estimate   =     -89.36254221 Ry
     estimated scf accuracy    <       0.01371090 Ry

     iteration #  2     ecut=    40.00 Ry     beta= 0.50
     Davidson diagonalization with overlap
     ethr =  4.28E-05,  avg # of iterations =  3.5

     total cpu time spent up to now is       32.5 secs

     total energy              =     -90.58438675 Ry
     Harris-Foulkes estimate   =     -90.58918477 Ry
     estimated scf accuracy    <       0.01516965 Ry

     iteration #  3     ecut=    40.00 Ry     beta= 0.50
     Davidson diagonalization with overlap
     ethr =  4.28E-05,  avg # of iterations =  1.0

     total cpu time spent up to now is       32.9 secs

     total energy              =     -90.58096586 Ry
     Harris-Foulkes estimate   =     -90.58486768 Ry
     estimated scf accuracy    <       0.00562069 Ry

     iteration #  4     ecut=    40.00 Ry     beta= 0.50
     Davidson diagonalization with overlap
     ethr =  1.76E-05,  avg # of iterations =  2.0

     total cpu time spent up to now is       33.7 secs

     total energy              =     -90.58245263 Ry
     Harris-Foulkes estimate   =     -90.58268388 Ry
     estimated scf accuracy    <       0.00042740 Ry

     iteration #  5     ecut=    40.00 Ry     beta= 0.50
     Davidson diagonalization with overlap
     ethr =  1.34E-06,  avg # of iterations =  4.1

     total cpu time spent up to now is       34.7 secs

     total energy              =     -90.58249792 Ry
     Harris-Foulkes estimate   =     -90.58250848 Ry
     estimated scf accuracy    <       0.00001727 Ry

     iteration #  6     ecut=    40.00 Ry     beta= 0.50
     Davidson diagonalization with overlap
     ethr =  5.40E-08,  avg # of iterations =  2.0

     total cpu time spent up to now is       35.4 secs

     total energy              =     -90.58250230 Ry
     Harris-Foulkes estimate   =     -90.58250190 Ry
     estimated scf accuracy    <       0.00000089 Ry

     iteration #  7     ecut=    40.00 Ry     beta= 0.50
     Davidson diagonalization with overlap
     ethr =  2.78E-09,  avg # of iterations =  2.0

     total cpu time spent up to now is       36.2 secs

     total energy              =     -90.58250150 Ry
     Harris-Foulkes estimate   =     -90.58250260 Ry
     estimated scf accuracy    <       0.00000171 Ry

     iteration #  8     ecut=    40.00 Ry     beta= 0.50
     Davidson diagonalization with overlap
     ethr =  2.78E-09,  avg # of iterations =  2.0

     total cpu time spent up to now is       36.9 secs

     total energy              =     -90.58250187 Ry
     Harris-Foulkes estimate   =     -90.58250187 Ry
     estimated scf accuracy    <       0.00000002 Ry

     iteration #  9     ecut=    40.00 Ry     beta= 0.50
     Davidson diagonalization with overlap
     ethr =  6.70E-11,  avg # of iterations =  2.0

     total cpu time spent up to now is       37.6 secs

     total energy              =     -90.58250186 Ry
     Harris-Foulkes estimate   =     -90.58250187 Ry
     estimated scf accuracy    <       0.00000001 Ry

     iteration # 10     ecut=    40.00 Ry     beta= 0.50
     Davidson diagonalization with overlap
     ethr =  3.30E-11,  avg # of iterations =  2.0

     total cpu time spent up to now is       38.3 secs

     End of self-consistent calculation

          k = 0.0000 0.0000 0.0000 (  3569 PWs)   bands (ev):

   -15.5783 -14.6264 -14.6056 -12.3879 -12.3856  -9.6486  -9.6256  -8.1934
    -4.2412  -3.6685  -3.4799  -3.4601  -2.8898  -2.8682   0.2684   0.2779
     1.0815   1.0846   5.1462   6.6895

          k =-0.0818 0.0430 0.5647 (  3570 PWs)   bands (ev):

   -15.1937 -15.1361 -13.9716 -13.3475 -11.5283 -10.5830  -8.9224  -8.3618
    -4.8371  -4.4312  -3.6630  -3.5506  -2.6089  -1.7717  -1.1957  -0.0079
     2.3891   2.9952   4.7837   4.9539

          k =-0.0382-0.6501-0.0392 (  3586 PWs)   bands (ev):

   -15.2931 -15.2919 -13.6761 -13.6302 -11.0039 -10.9536  -8.6023  -8.6015
    -4.3723  -4.3712  -3.5266  -3.5240  -1.7202  -1.6724  -1.2810  -1.2322
     3.1612   3.2198   3.6537   3.7169

          k =-0.1201-0.6071 0.5255 (  3596 PWs)   bands (ev):

   -15.3490 -14.7511 -14.4161 -12.8498 -12.0530 -10.1523  -9.2391  -8.2344
    -4.6591  -4.4650  -4.1871  -3.3804  -2.8833  -1.9757  -0.1846   0.0098
     1.8763   2.2684   5.9989   6.4581

          k =-0.5054-0.0269 0.0588 (  3588 PWs)   bands (ev):

   -15.3173 -15.3161 -13.6409 -13.5948 -11.0216 -10.9714  -8.5959  -8.5952
    -4.1682  -4.1670  -3.4957  -3.4935  -1.7166  -1.6689  -1.6467  -1.6006
     3.1031   3.1614   3.9197   3.9848

          k =-0.5873 0.0161 0.6235 (  3576 PWs)   bands (ev):

   -15.3619 -14.7368 -14.4379 -12.8683 -12.0189 -10.1327  -9.2513  -8.2372
    -4.6077  -4.3564  -4.1583  -3.4956  -2.6852  -2.0007  -0.1791   0.1345
     1.3940   2.2558   5.5769   6.4660

          k =-0.5437-0.6770 0.0196 (  3580 PWs)   bands (ev):

   -15.4857 -14.6890 -14.6684 -12.3626 -12.3602  -9.6585  -9.6355  -8.1916
    -4.9887  -3.6792  -3.0282  -3.0070  -2.8450  -2.8227   0.3353   0.3455
     0.7945   0.7996   6.6557   6.6894

          k =-0.6255-0.6340 0.5843 (  3571 PWs)   bands (ev):

   -15.2541 -15.0567 -13.9220 -13.4009 -11.5597 -10.5701  -8.9168  -8.3633
    -4.9103  -4.2721  -3.9873  -3.5816  -2.5541  -2.2240  -0.6066  -0.0022
     2.8790   2.9952   4.6086   4.9465

     the Fermi energy is     0.4767 ev

!    total energy              =     -90.58250186 Ry
     Harris-Foulkes estimate   =     -90.58250186 Ry
     estimated scf accuracy    <          9.3E-10 Ry

     The total energy is the sum of the following terms:

     one-electron contribution =     -62.52381126 Ry
     hartree contribution      =      40.24852320 Ry
     xc contribution           =     -27.22882939 Ry
     ewald contribution        =     -41.08218435 Ry
     smearing contrib. (-TS)   =       0.00379994 Ry

     convergence has been achieved in  10 iterations

     Forces acting on atoms (cartesian axes, Ry/au):

     atom    1 type  1   force =     0.00259507   -0.00201043   -0.00225036
     atom    2 type  1   force =    -0.01172085    0.00957971    0.01355531
     atom    3 type  1   force =    -0.00560697    0.00493886    0.00716216
     atom    4 type  1   force =     0.01627934   -0.01283241   -0.01674323
     atom    5 type  1   force =    -0.01108575    0.00841071    0.01116670
     atom    6 type  1   force =     0.01419237   -0.01204262   -0.01667996
     atom    7 type  1   force =    -0.00512867    0.00430392    0.00482336
     atom    8 type  1   force =     0.00047547   -0.00034775   -0.00103398

     Total force =     0.047523     Total SCF correction =     0.000011


     Computing stress (Cartesian axis) and pressure

          total   stress  (Ry/bohr**3)                   (kbar)     P=        1.75
   0.00001320  -0.00001179   0.00005516            1.94       -1.73        8.11
  -0.00001179   0.00000199  -0.00002851           -1.73        0.29       -4.19
   0.00005516  -0.00002851   0.00002057            8.11       -4.19        3.03


     number of scf cycles    =   7
     number of bfgs steps    =   6

     enthalpy old            =     -90.5800076077 Ry
     enthalpy new            =     -90.5824404280 Ry

     CASE: enthalpy_new < enthalpy_old

     new trust radius        =       0.2236321319 bohr
     new conv_thr            =       0.0000000017 Ry

     new unit-cell volume =    939.88659 a.u.^3 (   139.27682 Ang^3 )
     density =      1.14457 g/cm^3

CELL_PARAMETERS (bohr)
  12.770890313  -0.947950027   2.187046669
  -0.686530544   9.739753387  -0.948173529
   1.047734766  -0.579811152   7.818459206

ATOMIC_POSITIONS (crystal)
C             0.8750363807        0.9090338673        0.2524689659
C             0.3753968390        0.4088170793        0.2518585525
C             0.1254128932        0.6580151203        0.7508113935
C             0.6249706787        0.1580335219        0.7518640392
C             0.7511675835        1.0335670021        0.5020085179
C             0.2506403327        0.5335259304        0.5034740218
C             0.5004119235        0.2830343766        0.0030831603
C             0.0002143687       -0.2166468980        0.0029093490



     Writing output data file ./pp.save/
     NEW-OLD atomic charge density approx. for the potential
     extrapolated charge   33.23022, renormalised to   32.00000

     total cpu time spent up to now is       38.4 secs

     Self-consistent Calculation

     iteration #  1     ecut=    40.00 Ry     beta= 0.50
     Davidson diagonalization with overlap
     ethr =  1.00E-06,  avg # of iterations =  8.4

     total cpu time spent up to now is       40.7 secs

     total energy              =     -90.52172030 Ry
     Harris-Foulkes estimate   =     -88.75838137 Ry
     estimated scf accuracy    <       0.03054266 Ry

     iteration #  2     ecut=    40.00 Ry     beta= 0.50
     Davidson diagonalization with overlap
     ethr =  9.54E-05,  avg # of iterations =  3.0

     total cpu time spent up to now is       41.8 secs

     total energy              =     -90.58817971 Ry
     Harris-Foulkes estimate   =     -90.59883093 Ry
     estimated scf accuracy    <       0.03345751 Ry

     iteration #  3     ecut=    40.00 Ry     beta= 0.50
     Davidson diagonalization with overlap
     ethr =  9.54E-05,  avg # of iterations =  1.0

     total cpu time spent up to now is       42.4 secs

     total energy              =     -90.58080058 Ry
     Harris-Foulkes estimate   =     -90.58926117 Ry
     estimated scf accuracy    <       0.01224318 Ry

     iteration #  4     ecut=    40.00 Ry     beta= 0.50
     Davidson diagonalization with overlap
     ethr =  3.83E-05,  avg # of iterations =  2.0

     total cpu time spent up to now is       43.2 secs

     total energy              =     -90.58401119 Ry
     Harris-Foulkes estimate   =     -90.58446442 Ry
     estimated scf accuracy    <       0.00082379 Ry

     iteration #  5     ecut=    40.00 Ry     beta= 0.50
     Davidson diagonalization with overlap
     ethr =  2.57E-06,  avg # of iterations =  3.5

     total cpu time spent up to now is       44.3 secs

     total energy              =     -90.58411062 Ry
     Harris-Foulkes estimate   =     -90.58412723 Ry
     estimated scf accuracy    <       0.00002799 Ry

     iteration #  6     ecut=    40.00 Ry     beta= 0.50
     Davidson diagonalization with overlap
     ethr =  8.75E-08,  avg # of iterations =  2.0

     total cpu time spent up to now is       45.2 secs

     total energy              =     -90.58411820 Ry
     Harris-Foulkes estimate   =     -90.58411717 Ry
     estimated scf accuracy    <       0.00000169 Ry

     iteration #  7     ecut=    40.00 Ry     beta= 0.50
     Davidson diagonalization with overlap
     ethr =  5.30E-09,  avg # of iterations =  2.0

     total cpu time spent up to now is       46.1 secs

     total energy              =     -90.58411668 Ry
     Harris-Foulkes estimate   =     -90.58411862 Ry
     estimated scf accuracy    <       0.00000319 Ry

     iteration #  8     ecut=    40.00 Ry     beta= 0.50
     Davidson diagonalization with overlap
     ethr =  5.30E-09,  avg # of iterations =  2.0

     total cpu time spent up to now is       47.0 secs

     total energy              =     -90.58411727 Ry
     Harris-Foulkes estimate   =     -90.58411727 Ry
     estimated scf accuracy    <          4.5E-09 Ry

     iteration #  9     ecut=    40.00 Ry     beta= 0.50
     Davidson diagonalization with overlap
     ethr =  1.39E-11,  avg # of iterations =  4.9

     total cpu time spent up to now is       48.6 secs

     total energy              =     -90.58411727 Ry
     Harris-Foulkes estimate   =     -90.58411727 Ry
     estimated scf accuracy    <          9.5E-09 Ry

     iteration # 10     ecut=    40.00 Ry     beta= 0.50
     Davidson diagonalization with overlap
     ethr =  1.39E-11,  avg # of iterations =  2.0

     total cpu time spent up to now is       49.4 secs

     total energy              =     -90.58411727 Ry
     Harris-Foulkes estimate   =     -90.58411727 Ry
     estimated scf accuracy    <          2.0E-09 Ry

     iteration # 11     ecut=    40.00 Ry     beta= 0.50
     Davidson diagonalization with overlap
     ethr =  6.29E-12,  avg # of iterations =  2.0

     total cpu time spent up to now is       50.3 secs

     End of self-consistent calculation

          k = 0.0000 0.0000 0.0000 (  3569 PWs)   bands (ev):

   -15.7823 -14.8590 -14.8316 -12.6513 -12.6431  -9.9044  -9.8746  -8.4357
    -4.4600  -4.0625  -3.7042  -3.6776  -3.1848  -3.1562   0.1143   0.1339
     0.8250   0.8375   4.8273   6.5302

          k =-0.0906 0.0471 0.5493 (  3570 PWs)   bands (ev):

   -15.4603 -15.3641 -14.2358 -13.5634 -11.7654 -10.8213  -9.1590  -8.6086
    -4.9901  -4.6688  -3.9281  -3.7945  -2.7358  -2.0293  -1.3985  -0.4066
     2.1555   2.7287   4.5136   4.6971

          k =-0.0409-0.6496-0.0427 (  3586 PWs)   bands (ev):

   -15.5059 -15.5047 -13.9212 -13.8785 -11.2625 -11.2163  -8.8473  -8.8462
    -4.5746  -4.5736  -3.8940  -3.8932  -1.9259  -1.8814  -1.5371  -1.4924
     3.0330   3.0874   3.3986   3.4574

          k =-0.1315-0.6025 0.5066 (  3596 PWs)   bands (ev):

   -15.5985 -15.0230 -14.6326 -13.0997 -12.2766 -10.3849  -9.4857  -8.4771
    -4.8586  -4.6982  -4.2949  -3.6501  -3.0894  -2.3351  -0.4028  -0.2002
     1.6435   1.8974   5.7586   6.1182

          k =-0.5034-0.0291 0.0653 (  3588 PWs)   bands (ev):

   -15.5284 -15.5272 -13.8886 -13.8458 -11.2792 -11.2332  -8.8413  -8.8401
    -4.3840  -4.3826  -3.8617  -3.8611  -1.9261  -1.8818  -1.8754  -1.8324
     2.9817   3.0358   3.6455   3.7054

          k =-0.5939 0.0180 0.6146 (  3576 PWs)   bands (ev):

   -15.6101 -15.0098 -14.6533 -13.1174 -12.2447 -10.3664  -9.4972  -8.4797
    -4.8039  -4.6009  -4.2671  -3.7563  -2.9037  -2.3564  -0.3690  -0.1109
     1.1928   1.8808   5.3602   6.1189

          k =-0.5443-0.6787 0.0226 (  3580 PWs)   bands (ev):

   -15.6924 -14.9205 -14.8933 -12.6250 -12.6167  -9.9149  -9.8851  -8.4337
    -5.1811  -4.0793  -3.3073  -3.2797  -3.0929  -3.0643   0.1730   0.1939
     0.5318   0.5471   6.5071   6.5513

          k =-0.6349-0.6316 0.5719 (  3571 PWs)   bands (ev):

   -15.5203 -15.2867 -14.1861 -13.6158 -11.7966 -10.8077  -9.1531  -8.6105
    -5.0452  -4.4899  -4.2424  -3.8610  -2.6999  -2.4676  -0.8240  -0.3974
     2.6412   2.7354   4.3652   4.6526

     the Fermi energy is     0.3474 ev

!    total energy              =     -90.58411727 Ry
     Harris-Foulkes estimate   =     -90.58411727 Ry
     estimated scf accuracy    <          1.5E-10 Ry

     The total energy is the sum of the following terms:

     one-electron contribution =     -65.31911499 Ry
     hartree contribution      =      41.35179431 Ry
     xc contribution           =     -27.20899018 Ry
     ewald contribution        =     -39.40930974 Ry
     smearing contrib. (-TS)   =       0.00150333 Ry

     convergence has been achieved in  11 iterations

     Forces acting on atoms (cartesian axes, Ry/au):

     atom    1 type  1   force =     0.01349623   -0.01120712   -0.01401481
     atom    2 type  1   force =    -0.00066606    0.00010186    0.00212896
     atom    3 type  1   force =    -0.01535744    0.01332016    0.01872047
     atom    4 type  1   force =     0.00401408   -0.00210794   -0.00261246
     atom    5 type  1   force =    -0.01539641    0.01156374    0.01535755
     atom    6 type  1   force =     0.00853503   -0.00748693   -0.01139570
     atom    7 type  1   force =     0.00063638   -0.00040146   -0.00196773
     atom    8 type  1   force =     0.00473819   -0.00378232   -0.00621629

     Total force =     0.047387     Total SCF correction =     0.000026


     Computing stress (Cartesian axis) and pressure

          total   stress  (Ry/bohr**3)                   (kbar)     P=       -1.42
  -0.00000654  -0.00000215   0.00003256           -0.96       -0.32        4.79
  -0.00000215  -0.00000764  -0.00000940           -0.32       -1.12       -1.38
   0.00003256  -0.00000940  -0.00001476            4.79       -1.38       -2.17


     number of scf cycles    =   8
     number of bfgs steps    =   7

     enthalpy old            =     -90.5824404280 Ry
     enthalpy new            =     -90.5840533786 Ry

     CASE: enthalpy_new < enthalpy_old

     new trust radius        =       0.1286174107 bohr
     new conv_thr            =       0.0000000016 Ry

     new unit-cell volume =    960.27397 a.u.^3 (   142.29792 Ang^3 )
     density =      1.12027 g/cm^3

CELL_PARAMETERS (bohr)
  12.839155236  -1.000027919   2.361838370
  -0.729551536   9.753356066  -1.016633878
   1.133088788  -0.619813715   7.970148924

ATOMIC_POSITIONS (crystal)
C             0.8757980512        0.9083106725        0.2509774325
C             0.3757335599        0.4085729200        0.2511228235
C             0.1246731310        0.6587110598        0.7524983941
C             0.6245701541        0.1583546871        0.7524830130
C             0.7507333943        1.0341082534        0.5032535800
C             0.2507048670        0.5335228975        0.5032002143
C             0.5005794902        0.2827892192        0.0025139759
C             0.0004583523       -0.2169897095        0.0024285666



     Writing output data file ./pp.save/
     NEW-OLD atomic charge density approx. for the potential
     extrapolated charge   32.67938, renormalised to   32.00000

     total cpu time spent up to now is       50.4 secs

     Self-consistent Calculation

     iteration #  1     ecut=    40.00 Ry     beta= 0.50
     Davidson diagonalization with overlap
     ethr =  1.00E-06,  avg # of iterations =  7.1

     total cpu time spent up to now is       52.8 secs

     total energy              =     -90.56506260 Ry
     Harris-Foulkes estimate   =     -89.54799363 Ry
     estimated scf accuracy    <       0.01025055 Ry

     iteration #  2     ecut=    40.00 Ry     beta= 0.50
     Davidson diagonalization with overlap
     ethr =  3.20E-05,  avg # of iterations =  4.6

     total cpu time spent up to now is       54.5 secs

     total energy              =     -90.58546273 Ry
     Harris-Foulkes estimate   =     -90.58890383 Ry
     estimated scf accuracy    <       0.01061058 Ry

     iteration #  3     ecut=    40.00 Ry     beta= 0.50
     Davidson diagonalization with overlap
     ethr =  3.20E-05,  avg # of iterations =  1.0

     total cpu time spent up to now is       55.2 secs

     total energy              =     -90.58347593 Ry
     Harris-Foulkes estimate   =     -90.58584609 Ry
     estimated scf accuracy    <       0.00370365 Ry

     iteration #  4     ecut=    40.00 Ry     beta= 0.50
     Davidson diagonalization with overlap
     ethr =  1.16E-05,  avg # of iterations =  2.0

     total cpu time spent up to now is       56.2 secs

     total energy              =     -90.58433255 Ry
     Harris-Foulkes estimate   =     -90.58432559 Ry
     estimated scf accuracy    <       0.00004302 Ry

     iteration #  5     ecut=    40.00 Ry     beta= 0.50
     Davidson diagonalization with overlap
     ethr =  1.34E-07,  avg # of iterations =  2.8

     total cpu time spent up to now is       57.4 secs

     total energy              =     -90.58431534 Ry
     Harris-Foulkes estimate   =     -90.58434290 Ry
     estimated scf accuracy    <       0.00006930 Ry

     iteration #  6     ecut=    40.00 Ry     beta= 0.50
     Davidson diagonalization with overlap
     ethr =  1.34E-07,  avg # of iterations =  2.0

     total cpu time spent up to now is       58.3 secs

     total energy              =     -90.58430954 Ry
     Harris-Foulkes estimate   =     -90.58431969 Ry
     estimated scf accuracy    <       0.00001402 Ry

     iteration #  7     ecut=    40.00 Ry     beta= 0.50
     Davidson diagonalization with overlap
     ethr =  4.38E-08,  avg # of iterations =  2.0

     total cpu time spent up to now is       59.3 secs

     total energy              =     -90.58431300 Ry
     Harris-Foulkes estimate   =     -90.58431678 Ry
     estimated scf accuracy    <       0.00000607 Ry

     iteration #  8     ecut=    40.00 Ry     beta= 0.50
     Davidson diagonalization with overlap
     ethr =  1.90E-08,  avg # of iterations =  2.0

     total cpu time spent up to now is       60.3 secs

     total energy              =     -90.58431435 Ry
     Harris-Foulkes estimate   =     -90.58431437 Ry
     estimated scf accuracy    <       0.00000008 Ry

     iteration #  9     ecut=    40.00 Ry     beta= 0.50
     Davidson diagonalization with overlap
     ethr =  2.66E-10,  avg # of iterations =  2.5

     total cpu time spent up to now is       61.4 secs

     total energy              =     -90.58431435 Ry
     Harris-Foulkes estimate   =     -90.58431436 Ry
     estimated scf accuracy    <       0.00000003 Ry

     iteration # 10     ecut=    40.00 Ry     beta= 0.50
     Davidson diagonalization with overlap
     ethr =  8.13E-11,  avg # of iterations =  2.0

     total cpu time spent up to now is       62.4 secs

     End of self-consistent calculation

          k = 0.0000 0.0000 0.0000 (  3569 PWs)   bands (ev):

   -15.8951 -14.9951 -14.9437 -12.7876 -12.7813 -10.0506  -9.9945  -8.5649
    -4.5813  -4.2663  -3.8344  -3.7856  -3.3495  -3.2968   0.0367   0.0524
     0.6978   0.7073   4.6560   6.5177

          k =-0.0957 0.0492 0.5409 (  3570 PWs)   bands (ev):

   -15.6016 -15.4877 -14.3738 -13.6811 -11.8911 -10.9495  -9.2853  -8.7398
    -5.0826  -4.7906  -4.0726  -3.9242  -2.8087  -2.1628  -1.5069  -0.6110
     2.0362   2.5881   4.3740   4.5735

          k =-0.0424-0.6495-0.0445 (  3586 PWs)   bands (ev):

   -15.6228 -15.6220 -14.0372 -14.0248 -11.3833 -11.3697  -8.9770  -8.9764
    -4.6845  -4.6840  -4.0860  -4.0858  -2.0184  -2.0073  -1.6587  -1.6447
     2.9816   2.9978   3.2932   3.3096

          k =-0.1381-0.6002 0.4964 (  3596 PWs)   bands (ev):

   -15.7319 -15.1669 -14.7493 -13.2319 -12.3970 -10.5098  -9.6164  -8.6066
    -4.9694  -4.8233  -4.3591  -3.7936  -3.1985  -2.5231  -0.5196  -0.3100
     1.5208   1.7109   5.6365   5.9451

          k =-0.5025-0.0304 0.0691 (  3588 PWs)   bands (ev):

   -15.6443 -15.6436 -14.0062 -13.9938 -11.3994 -11.3858  -8.9711  -8.9705
    -4.5020  -4.5011  -4.0530  -4.0526  -2.0216  -2.0102  -1.9800  -1.9680
     2.9354   2.9514   3.5260   3.5441

          k =-0.5982 0.0188 0.6100 (  3576 PWs)   bands (ev):

   -15.7430 -15.1544 -14.7691 -13.2490 -12.3666 -10.4920  -9.6274  -8.6091
    -4.9132  -4.7316  -4.3323  -3.8935  -3.0213  -2.5422  -0.4734  -0.2387
     1.0894   1.6917   5.2532   5.9422

          k =-0.5449-0.6798 0.0246 (  3580 PWs)   bands (ev):

   -15.8067 -15.0558 -15.0050 -12.7607 -12.7543 -10.0614 -10.0053  -8.5627
    -5.2866  -4.2878  -3.4670  -3.4153  -3.2342  -3.1794   0.0882   0.1053
     0.4031   0.4155   6.4134   6.4978

          k =-0.6406-0.6306 0.5655 (  3571 PWs)   bands (ev):

   -15.6614 -15.4113 -14.3240 -13.7330 -11.9223 -10.9354  -9.2792  -8.7420
    -5.1234  -4.6073  -4.3782  -4.0115  -2.7901  -2.5871  -0.9404  -0.5987
     2.5195   2.5998   4.2395   4.5074

     the Fermi energy is     0.2602 ev

!    total energy              =     -90.58431435 Ry
     Harris-Foulkes estimate   =     -90.58431436 Ry
     estimated scf accuracy    <          1.5E-09 Ry

     The total energy is the sum of the following terms:

     one-electron contribution =     -67.01888581 Ry
     hartree contribution      =      42.04971062 Ry
     xc contribution           =     -27.20639367 Ry
     ewald contribution        =     -38.40953811 Ry
[...]
    -3.2015  -3.2008  -2.8009  -2.7998  -1.1246  -1.1216  -0.8168  -0.8147
     4.0363   4.0389   4.6450   4.6483

          k =-0.6705-0.0962 0.6681 (  3576 PWs)   bands (ev):

   -14.6616 -14.0163 -13.5779 -12.0351 -11.1497  -9.3124  -8.4791  -7.4538
    -3.8188  -3.1461  -3.0968  -2.6655  -2.0139  -1.4260   0.2647   0.9964
     2.0014   2.7592   6.4105   6.9858

          k =-0.6420-0.8608 0.1377 (  3580 PWs)   bands (ev):

   -14.5055 -13.9107 -13.9095 -11.6283 -11.6247  -8.8775  -8.8765  -7.3847
    -4.4479  -3.4046  -2.3312  -2.3285  -1.7691  -1.7681   1.0240   1.0291
     2.0779   2.0831   7.5534   7.5582

          k =-0.7923-0.8720 0.6927 (  3571 PWs)   bands (ev):

   -14.4853 -14.1647 -13.1715 -12.6417 -10.8033  -9.7664  -8.0949  -7.5756
    -4.1769  -3.6488  -3.0795  -3.0275  -1.8970  -1.0771   0.6350   0.6525
     3.7966   4.0466   5.2264   5.8222

     the Fermi energy is     1.4640 ev

!    total energy              =     -90.59116911 Ry
     Harris-Foulkes estimate   =     -90.59116911 Ry
     estimated scf accuracy    <          9.5E-11 Ry

     The total energy is the sum of the following terms:

     one-electron contribution =     -48.46353564 Ry
     hartree contribution      =      34.15095173 Ry
     xc contribution           =     -27.22947241 Ry
     ewald contribution        =     -49.05165307 Ry
     smearing contrib. (-TS)   =       0.00254029 Ry

     convergence has been achieved in   9 iterations

     Forces acting on atoms (cartesian axes, Ry/au):

     atom    1 type  1   force =    -0.00057358   -0.00000414   -0.00059581
     atom    2 type  1   force =     0.00105789   -0.00078072    0.00002908
     atom    3 type  1   force =     0.00092467   -0.00082684   -0.00132223
     atom    4 type  1   force =    -0.00029513    0.00042566   -0.00010536
     atom    5 type  1   force =     0.00045848   -0.00009494    0.00053243
     atom    6 type  1   force =    -0.00145192    0.00134643    0.00078326
     atom    7 type  1   force =    -0.00019849   -0.00013170   -0.00039394
     atom    8 type  1   force =     0.00007809    0.00006626    0.00107257

     Total force =     0.003520     Total SCF correction =     0.000005


     Computing stress (Cartesian axis) and pressure

          total   stress  (Ry/bohr**3)                   (kbar)     P=        0.42
  -0.00000399  -0.00000169  -0.00000449           -0.59       -0.25       -0.66
  -0.00000169   0.00000373   0.00000681           -0.25        0.55        1.00
  -0.00000449   0.00000681   0.00000878           -0.66        1.00        1.29


     number of scf cycles    =  59
     number of bfgs steps    =  56

     enthalpy old            =     -90.5910734243 Ry
     enthalpy new            =     -90.5911150395 Ry

     CASE: enthalpy_new < enthalpy_old

     new trust radius        =       0.0181671752 bohr
     new conv_thr            =            1.0E-10 Ry

     new unit-cell volume =    795.72922 a.u.^3 (   117.91490 Ang^3 )
     density =      1.35192 g/cm^3

CELL_PARAMETERS (bohr)
  13.119442598  -1.921459532   3.511069288
  -1.377353526   8.267589732  -0.193130639
   1.736761793  -0.006474103   7.989865402

ATOMIC_POSITIONS (crystal)
C             0.8756328729        0.9089147889        0.2519961058
C             0.3752879116        0.4083300945        0.2522249367
C             0.1254045390        0.6583392143        0.7523521065
C             0.6253270082        0.1580252410        0.7526092495
C             0.7504002526        1.0336656978        0.5020778818
C             0.2503173668        0.5330379671        0.5027082242
C             0.5003961383        0.2831619917        0.0026443708
C             0.0004849106       -0.2160949954        0.0018651247



     Writing output data file ./pp.save/
     NEW-OLD atomic charge density approx. for the potential
     extrapolated charge   32.01140, renormalised to   32.00000

     total cpu time spent up to now is     2033.7 secs

     Self-consistent Calculation

     iteration #  1     ecut=    40.00 Ry     beta= 0.50
     Davidson diagonalization with overlap
     ethr =  1.00E-06,  avg # of iterations =  3.0

     Threshold (ethr) on eigenvalues was too large:
     Diagonalizing with lowered threshold

     Davidson diagonalization with overlap
     ethr =  3.34E-08,  avg # of iterations =  2.0

     total cpu time spent up to now is     2049.7 secs

     total energy              =     -90.59117274 Ry
     Harris-Foulkes estimate   =     -90.57945553 Ry
     estimated scf accuracy    <       0.00001110 Ry

     iteration #  2     ecut=    40.00 Ry     beta= 0.50
     Davidson diagonalization with overlap
     ethr =  3.47E-08,  avg # of iterations =  2.0

     total cpu time spent up to now is     2057.0 secs

     total energy              =     -90.59117839 Ry
     Harris-Foulkes estimate   =     -90.59117917 Ry
     estimated scf accuracy    <       0.00000315 Ry

     iteration #  3     ecut=    40.00 Ry     beta= 0.50
     Davidson diagonalization with overlap
     ethr =  9.83E-09,  avg # of iterations =  1.1

     total cpu time spent up to now is     2062.4 secs

     total energy              =     -90.59117856 Ry
     Harris-Foulkes estimate   =     -90.59117859 Ry
     estimated scf accuracy    <       0.00000063 Ry

     iteration #  4     ecut=    40.00 Ry     beta= 0.50
     Davidson diagonalization with overlap
     ethr =  1.98E-09,  avg # of iterations =  2.0

     total cpu time spent up to now is     2070.0 secs

     total energy              =     -90.59117866 Ry
     Harris-Foulkes estimate   =     -90.59117868 Ry
     estimated scf accuracy    <       0.00000006 Ry

     iteration #  5     ecut=    40.00 Ry     beta= 0.50
     Davidson diagonalization with overlap
     ethr =  2.01E-10,  avg # of iterations =  1.6

     total cpu time spent up to now is     2076.3 secs

     total energy              =     -90.59117867 Ry
     Harris-Foulkes estimate   =     -90.59117867 Ry
     estimated scf accuracy    <       0.00000002 Ry

     iteration #  6     ecut=    40.00 Ry     beta= 0.50
     Davidson diagonalization with overlap
     ethr =  7.12E-11,  avg # of iterations =  2.0

     total cpu time spent up to now is     2083.4 secs

     total energy              =     -90.59117867 Ry
     Harris-Foulkes estimate   =     -90.59117867 Ry
     estimated scf accuracy    <          4.1E-09 Ry

     iteration #  7     ecut=    40.00 Ry     beta= 0.50
     Davidson diagonalization with overlap
     ethr =  1.27E-11,  avg # of iterations =  2.0

     total cpu time spent up to now is     2090.6 secs

     total energy              =     -90.59117867 Ry
     Harris-Foulkes estimate   =     -90.59117867 Ry
     estimated scf accuracy    <          2.3E-10 Ry

     iteration #  8     ecut=    40.00 Ry     beta= 0.50
     Davidson diagonalization with overlap
     ethr =  7.07E-13,  avg # of iterations =  2.1

     total cpu time spent up to now is     2098.2 secs

     End of self-consistent calculation

          k = 0.0000 0.0000 0.0000 (  3569 PWs)   bands (ev):

   -14.8370 -13.7663 -13.7656 -11.6075 -11.6043  -8.8528  -8.8520  -7.4113
    -3.0329  -2.9550  -2.8135  -2.8126  -2.2010  -2.2001   0.9711   0.9748
     1.9888   1.9931   6.3655   7.4490

          k =-0.1503-0.0121 0.5548 (  3570 PWs)   bands (ev):

   -14.4820 -14.3929 -13.2146 -12.4239 -10.6672  -9.7919  -8.1366  -7.5827
    -4.1956  -3.1262  -2.8586  -2.4875  -1.7933  -0.8757  -0.6549   0.3065
     2.9254   3.5472   5.3675   5.9944

          k =-0.1206-0.7764 0.0256 (  3586 PWs)   bands (ev):

   -14.3955 -14.3947 -12.9314 -12.9307 -10.2349 -10.2343  -7.8047  -7.8046
    -3.7498  -3.7474  -3.0036  -3.0015  -0.7678  -0.7657  -0.2195  -0.2187
     4.0739   4.0761   4.7372   4.7393

          k =-0.2708-0.7885 0.5804 (  3596 PWs)   bands (ev):

   -14.4949 -14.0053 -13.5966 -12.1165 -11.2780  -9.3471  -8.4449  -7.4343
    -4.2094  -3.6185  -3.1620  -2.7128  -1.9294  -1.4154   0.5293   1.3212
     2.7938   3.1098   6.7435   7.1067

          k =-0.5195-0.0839 0.1129 (  3588 PWs)   bands (ev):

   -14.5293 -14.5285 -12.7903 -12.7898 -10.2191 -10.2187  -7.8134  -7.8131
    -3.2019  -3.2011  -2.7988  -2.7977  -1.1263  -1.1250  -0.8182  -0.8180
     4.0308   4.0316   4.6357   4.6363

          k =-0.6698-0.0960 0.6677 (  3576 PWs)   bands (ev):

   -14.6636 -14.0179 -13.5793 -12.0354 -11.1507  -9.3140  -8.4796  -7.4549
    -3.8214  -3.1496  -3.0917  -2.6616  -2.0158  -1.4242   0.2613   0.9930
     1.9949   2.7582   6.4071   6.9848

          k =-0.6401-0.8604 0.1384 (  3580 PWs)   bands (ev):

   -14.5078 -13.9095 -13.9086 -11.6306 -11.6275  -8.8787  -8.8779  -7.3858
    -4.4490  -3.4001  -2.3343  -2.3316  -1.7796  -1.7788   1.0230   1.0268
     2.0815   2.0860   7.5560   7.5606

          k =-0.7903-0.8724 0.6933 (  3571 PWs)   bands (ev):

   -14.4829 -14.1672 -13.1742 -12.6426 -10.8051  -9.7686  -8.0964  -7.5763
    -4.1793  -3.6460  -3.0923  -3.0272  -1.8933  -1.0786   0.6333   0.6478
     3.8007   4.0436   5.2276   5.8200

     the Fermi energy is     1.4714 ev

!    total energy              =     -90.59117867 Ry
     Harris-Foulkes estimate   =     -90.59117867 Ry
     estimated scf accuracy    <          1.7E-11 Ry

     The total energy is the sum of the following terms:

     one-electron contribution =     -48.47336898 Ry
     hartree contribution      =      34.15341996 Ry
     xc contribution           =     -27.22803638 Ry
     ewald contribution        =     -49.04563874 Ry
     smearing contrib. (-TS)   =       0.00244547 Ry

     convergence has been achieved in   8 iterations

     Forces acting on atoms (cartesian axes, Ry/au):

     atom    1 type  1   force =    -0.00058066    0.00029559    0.00025205
     atom    2 type  1   force =     0.00013930   -0.00023355    0.00054191
     atom    3 type  1   force =    -0.00035253    0.00042244    0.00030055
     atom    4 type  1   force =    -0.00040400    0.00071590    0.00028759
     atom    5 type  1   force =     0.00069597   -0.00065104   -0.00036329
     atom    6 type  1   force =     0.00021452   -0.00002236   -0.00069609
     atom    7 type  1   force =    -0.00005804   -0.00012998   -0.00035420
     atom    8 type  1   force =     0.00034543   -0.00039700    0.00003147

     Total force =     0.002001     Total SCF correction =     0.000006


     Computing stress (Cartesian axis) and pressure

          total   stress  (Ry/bohr**3)                   (kbar)     P=       -0.08
  -0.00000731   0.00000037  -0.00000141           -1.08        0.05       -0.21
   0.00000037   0.00000194   0.00000094            0.05        0.28        0.14
  -0.00000141   0.00000094   0.00000380           -0.21        0.14        0.56


     number of scf cycles    =  60
     number of bfgs steps    =  57

     enthalpy old            =     -90.5911150395 Ry
     enthalpy new            =     -90.5911245793 Ry

     CASE: enthalpy_new < enthalpy_old

     new trust radius        =       0.0104687245 bohr
     new conv_thr            =            1.0E-10 Ry

     new unit-cell volume =    797.01430 a.u.^3 (   118.10533 Ang^3 )
     density =      1.34974 g/cm^3

CELL_PARAMETERS (bohr)
  13.115156616  -1.917400663   3.507341691
  -1.375109285   8.280228208  -0.196867461
   1.734934234  -0.009644056   7.990979679

ATOMIC_POSITIONS (crystal)
C             0.8755976346        0.9089603232        0.2519576488
C             0.3753331141        0.4083280449        0.2523262551
C             0.1253740270        0.6583193459        0.7523782389
C             0.6253033077        0.1580584777        0.7526191088
C             0.7504552746        1.0336581420        0.5020918071
C             0.2503277512        0.5331155776        0.5025753382
C             0.5003541590        0.2831123958        0.0025831592
C             0.0005057320       -0.2161723072        0.0019464440



     Writing output data file ./pp.save/
     NEW-OLD atomic charge density approx. for the potential
     extrapolated charge   32.05160, renormalised to   32.00000

     total cpu time spent up to now is     2098.6 secs

     Self-consistent Calculation

     iteration #  1     ecut=    40.00 Ry     beta= 0.50
     Davidson diagonalization with overlap
     ethr =  1.00E-06,  avg # of iterations =  2.0

     total cpu time spent up to now is     2106.2 secs

     total energy              =     -90.59109590 Ry
     Harris-Foulkes estimate   =     -90.53795381 Ry
     estimated scf accuracy    <       0.00004521 Ry

     iteration #  2     ecut=    40.00 Ry     beta= 0.50
     Davidson diagonalization with overlap
     ethr =  1.41E-07,  avg # of iterations =  3.0

     total cpu time spent up to now is     2115.3 secs

     total energy              =     -90.59118799 Ry
     Harris-Foulkes estimate   =     -90.59120181 Ry
     estimated scf accuracy    <       0.00004307 Ry

     iteration #  3     ecut=    40.00 Ry     beta= 0.50
     Davidson diagonalization with overlap
     ethr =  1.35E-07,  avg # of iterations =  1.0

     total cpu time spent up to now is     2120.6 secs

     total energy              =     -90.59117925 Ry
     Harris-Foulkes estimate   =     -90.59118949 Ry
     estimated scf accuracy    <       0.00001516 Ry

     iteration #  4     ecut=    40.00 Ry     beta= 0.50
     Davidson diagonalization with overlap
     ethr =  4.74E-08,  avg # of iterations =  2.0

     total cpu time spent up to now is     2128.2 secs

     total energy              =     -90.59118321 Ry
     Harris-Foulkes estimate   =     -90.59118360 Ry
     estimated scf accuracy    <       0.00000093 Ry

     iteration #  5     ecut=    40.00 Ry     beta= 0.50
     Davidson diagonalization with overlap
     ethr =  2.90E-09,  avg # of iterations =  1.6

     total cpu time spent up to now is     2134.6 secs

     total energy              =     -90.59118321 Ry
     Harris-Foulkes estimate   =     -90.59118328 Ry
     estimated scf accuracy    <       0.00000017 Ry

     iteration #  6     ecut=    40.00 Ry     beta= 0.50
     Davidson diagonalization with overlap
     ethr =  5.16E-10,  avg # of iterations =  2.0

     total cpu time spent up to now is     2142.3 secs

     total energy              =     -90.59118321 Ry
     Harris-Foulkes estimate   =     -90.59118322 Ry
     estimated scf accuracy    <       0.00000002 Ry

     iteration #  7     ecut=    40.00 Ry     beta= 0.50
     Davidson diagonalization with overlap
     ethr =  5.33E-11,  avg # of iterations =  2.0

     total cpu time spent up to now is     2150.0 secs

     End of self-consistent calculation

          k = 0.0000 0.0000 0.0000 (  3569 PWs)   bands (ev):

   -14.8464 -13.7773 -13.7769 -11.6182 -11.6176  -8.8639  -8.8635  -7.4224
    -3.0443  -2.9718  -2.8238  -2.8231  -2.2120  -2.2111   0.9653   0.9662
     1.9788   1.9797   6.3487   7.4375

          k =-0.1500-0.0117 0.5547 (  3570 PWs)   bands (ev):

   -14.4921 -14.4030 -13.2261 -12.4361 -10.6791  -9.8034  -8.1477  -7.5937
    -4.2036  -3.1436  -2.8716  -2.4998  -1.8025  -0.8871  -0.6634   0.2967
     2.9165   3.5373   5.3589   5.9819

          k =-0.1200-0.7751 0.0251 (  3586 PWs)   bands (ev):

   -14.4075 -14.4066 -12.9414 -12.9410 -10.2458 -10.2453  -7.8161  -7.8160
    -3.7570  -3.7548  -3.0144  -3.0124  -0.7787  -0.7773  -0.2350  -0.2341
     4.0655   4.0664   4.7215   4.7223

          k =-0.2701-0.7869 0.5798 (  3596 PWs)   bands (ev):

   -14.5072 -14.0166 -13.6075 -12.1269 -11.2882  -9.3581  -8.4564  -7.4457
    -4.2152  -3.6302  -3.1722  -2.7233  -1.9402  -1.4267   0.5209   1.3036
     2.7813   3.0927   6.7298   7.0938

          k =-0.5195-0.0836 0.1127 (  3588 PWs)   bands (ev):

   -14.5392 -14.5385 -12.8023 -12.8019 -10.2307 -10.2303  -7.8245  -7.8243
    -3.2138  -3.2127  -2.8131  -2.8119  -1.1337  -1.1332  -0.8289  -0.8282
     4.0220   4.0231   4.6230   4.6236

          k =-0.6696-0.0953 0.6674 (  3576 PWs)   bands (ev):

   -14.6733 -14.0286 -13.5904 -12.0473 -11.1628  -9.3255  -8.4907  -7.4659
    -3.8305  -3.1595  -3.1092  -2.6740  -2.0261  -1.4359   0.2549   0.9797
     1.9882   2.7473   6.3973   6.9741

          k =-0.6396-0.8587 0.1378 (  3580 PWs)   bands (ev):

   -14.5204 -13.9202 -13.9195 -11.6398 -11.6391  -8.8898  -8.8893  -7.3973
    -4.4562  -3.4092  -2.3448  -2.3422  -1.7916  -1.7909   1.0154   1.0162
     2.0648   2.0657   7.5442   7.5483

          k =-0.7896-0.8705 0.6925 (  3571 PWs)   bands (ev):

   -14.4949 -14.1791 -13.1849 -12.6527 -10.8156  -9.7795  -8.1078  -7.5878
    -4.1863  -3.6553  -3.1040  -3.0362  -1.9022  -1.0931   0.6211   0.6326
     3.7880   4.0287   5.2161   5.8053

     the Fermi energy is     1.4490 ev

!    total energy              =     -90.59118322 Ry
     Harris-Foulkes estimate   =     -90.59118322 Ry
     estimated scf accuracy    <          9.8E-11 Ry

     The total energy is the sum of the following terms:

     one-electron contribution =     -48.60215565 Ry
     hartree contribution      =      34.20396856 Ry
     xc contribution           =     -27.22678221 Ry
     ewald contribution        =     -48.96876234 Ry
     smearing contrib. (-TS)   =       0.00254843 Ry

     convergence has been achieved in   7 iterations

     Forces acting on atoms (cartesian axes, Ry/au):

     atom    1 type  1   force =    -0.00002413   -0.00019664   -0.00012066
     atom    2 type  1   force =     0.00014757   -0.00033037    0.00017991
     atom    3 type  1   force =    -0.00006975    0.00022234    0.00001021
     atom    4 type  1   force =     0.00019373    0.00013862   -0.00035548
     atom    5 type  1   force =    -0.00000395   -0.00006180    0.00021963
     atom    6 type  1   force =     0.00005918    0.00007947   -0.00029153
     atom    7 type  1   force =    -0.00028526    0.00021373    0.00012823
     atom    8 type  1   force =    -0.00001739   -0.00006535    0.00022968

     Total force =     0.000896     Total SCF correction =     0.000006


     Computing stress (Cartesian axis) and pressure

          total   stress  (Ry/bohr**3)                   (kbar)     P=       -0.41
  -0.00000906   0.00000054  -0.00000004           -1.33        0.08       -0.01
   0.00000054  -0.00000102   0.00000136            0.08       -0.15        0.20
  -0.00000004   0.00000136   0.00000168           -0.01        0.20        0.25


     number of scf cycles    =  61
     number of bfgs steps    =  58

     enthalpy old            =     -90.5911245793 Ry
     enthalpy new            =     -90.5911290379 Ry

     CASE: enthalpy_new < enthalpy_old

     new trust radius        =       0.0053627658 bohr
     new conv_thr            =            1.0E-10 Ry

     new unit-cell volume =    796.82056 a.u.^3 (   118.07662 Ang^3 )
     density =      1.35007 g/cm^3

CELL_PARAMETERS (bohr)
  13.108540194  -1.922123461   3.507558764
  -1.379617682   8.282946630  -0.199196714
   1.735556141  -0.011142380   7.991974161

ATOMIC_POSITIONS (crystal)
C             0.8755972960        0.9089863325        0.2519308743
C             0.3753358334        0.4082651135        0.2524002565
C             0.1253527238        0.6583054398        0.7523871155
C             0.6253206973        0.1581249388        0.7525726796
C             0.7504633216        1.0336192432        0.5021396488
C             0.2503652622        0.5332133402        0.5024912149
C             0.5003210674        0.2830918857        0.0025634620
C             0.0004947984       -0.2162262937        0.0019927483



     Writing output data file ./pp.save/
     NEW-OLD atomic charge density approx. for the potential
     extrapolated charge   31.99222, renormalised to   32.00000

     total cpu time spent up to now is     2150.4 secs

     Self-consistent Calculation

     iteration #  1     ecut=    40.00 Ry     beta= 0.50
     Davidson diagonalization with overlap
     ethr =  1.00E-06,  avg # of iterations =  2.0

     Threshold (ethr) on eigenvalues was too large:
     Diagonalizing with lowered threshold

     Davidson diagonalization with overlap
