
     Program PWSCF v.6.5 starts on  7Jul2022 at  5: 0:14 

     This program is part of the open-source Quantum ESPRESSO suite
     for quantum simulation of materials; please cite
         "P. Giannozzi et al., J. Phys.:Condens. Matter 21 395502 (2009);
         "P. Giannozzi et al., J. Phys.:Condens. Matter 29 465901 (2017);
          URL http://www.quantum-espresso.org", 
     in publications or presentations arising from this work. More details at
     http://www.quantum-espresso.org/quote

     Parallel version (MPI), running on    96 processors

     MPI processes distributed on     2 nodes
     R & G space division:  proc/nbgrp/npool/nimage =      96
     Waiting for input...
     Reading input from standard input
     Message from routine read_cards :
     DEPRECATED: no units specified in CELL_PARAMETERS card

     Current dimensions of program PWSCF are:
     Max number of different atomic species (ntypx) = 10
     Max number of k-points (npk) =  40000
     Max angular momentum in pseudopotentials (lmaxx) =  3

     Subspace diagonalization in iterative solution of the eigenvalue problem:
     one sub-group per band group will be used
     scalapack distributed-memory algorithm (size of sub-group:  9*  9 procs)

 
     Parallelization info
     --------------------
     sticks:   dense  smooth     PW     G-vecs:    dense   smooth      PW
     Min           8       8      2                  108      108      18
     Max           9       9      3                  111      111      21
     Sum         823     823    259                10529    10529    1889
 


     bravais-lattice index     =            0
     lattice parameter (alat)  =       9.4332  a.u.
     unit-cell volume          =     307.8033 (a.u.)^3
     number of atoms/cell      =            8
     number of atomic types    =            1
     number of electrons       =        32.00
     number of Kohn-Sham states=           20
     kinetic-energy cutoff     =      40.0000  Ry
     charge density cutoff     =     160.0000  Ry
     convergence threshold     =      1.0E-06
     mixing beta               =       0.5000
     number of iterations used =            8  plain     mixing
     Exchange-correlation=  SLA  PW   PBE  PBE
                           (   1   4   3   4   0   0   0)
     nstep                     =          250


     celldm(1)=   9.433200  celldm(2)=   0.000000  celldm(3)=   0.000000
     celldm(4)=   0.000000  celldm(5)=   0.000000  celldm(6)=   0.000000

     crystal axes: (cart. coord. in units of alat)
               a(1) = (   1.000000  -0.000011   0.000000 )  
               a(2) = (   0.000011   0.724770   0.000159 )  
               a(3) = (   0.000000  -0.000117   0.505936 )  

     reciprocal axes: (cart. coord. in units 2 pi/alat)
               b(1) = (  1.000000 -0.000015 -0.000000 )  
               b(2) = (  0.000015  1.379748  0.000318 )  
               b(3) = ( -0.000000 -0.000434  1.976533 )  


     PseudoPot. # 1 for C  read from file:
     ./C.pbe-van_bm.upf
     MD5 check sum: 1a69bf6b8db32088f5b2163dbdb77a27
     Pseudo is Ultrasoft, Zval =  4.0
     Generated by new atomic code, or converted to UPF format
     Using radial grid of  721 points,  4 beta functions with: 
                l(1) =   0
                l(2) =   0
                l(3) =   1
                l(4) =   1
     Q(r) pseudized with  8 coefficients,  rinner =    0.800   0.800   0.800


     atomic species   valence    mass     pseudopotential
        C              4.00    12.00000     C ( 1.00)

     No symmetry found



   Cartesian axes

     site n.     atom                  positions (alat units)
         1           C   tau(   1) = (   0.9861251   0.6244624   0.0025392  )
         2           C   tau(   2) = (   0.4861421   0.6253127   0.2072281  )
         3           C   tau(   3) = (   0.9861175   0.3100937   0.2277845  )
         4           C   tau(   4) = (   0.4861415   0.3088270   0.4917601  )
         5           C   tau(   5) = (   0.2364115   0.4410043   0.1061147  )
         6           C   tau(   6) = (   0.7358465   0.4409917   0.1061193  )
         7           C   tau(   7) = (   0.4861157   0.0452537   0.4500850  )
         8           C   tau(   8) = (   0.9861297   0.0459504   0.2660836  )

     number of k points=    14  Marzari-Vanderbilt smearing, width (Ry)=  0.0200
                       cart. coord. in units 2pi/alat
        k(    1) = (   0.0000000   0.0000000   0.0000000), wk =   0.0833333
        k(    2) = (  -0.0000000  -0.0001084   0.4941332), wk =   0.1666667
        k(    3) = (   0.0000000   0.0002168  -0.9882663), wk =   0.0833333
        k(    4) = (   0.0000049   0.4599160   0.0001060), wk =   0.1666667
        k(    5) = (   0.0000049   0.4598076   0.4942392), wk =   0.1666667
        k(    6) = (   0.0000049   0.4601328  -0.9881603), wk =   0.1666667
        k(    7) = (   0.0000049   0.4600244  -0.4940271), wk =   0.1666667
        k(    8) = (  -0.5000000   0.0000073   0.0000000), wk =   0.0833333
        k(    9) = (  -0.5000000  -0.0001011   0.4941332), wk =   0.1666667
        k(   10) = (  -0.5000000   0.0002241  -0.9882663), wk =   0.0833333
        k(   11) = (  -0.4999951   0.4599233   0.0001060), wk =   0.1666667
        k(   12) = (  -0.4999951   0.4598149   0.4942392), wk =   0.1666667
        k(   13) = (  -0.4999951   0.4601402  -0.9881603), wk =   0.1666667
        k(   14) = (  -0.4999951   0.4600317  -0.4940271), wk =   0.1666667

     Dense  grid:    10529 G-vectors     FFT dimensions: (  40,  27,  20)

     Estimated max dynamical RAM per process >       1.62 MB

     Estimated total dynamical RAM >     155.21 MB

     Initial potential from superposition of free atoms

     starting charge   31.99968, renormalised to   32.00000
     Starting wfcs are   32 randomized atomic wfcs

     total cpu time spent up to now is        0.6 secs

     Self-consistent Calculation

     iteration #  1     ecut=    40.00 Ry     beta= 0.50
     Davidson diagonalization with overlap
     ethr =  1.00E-02,  avg # of iterations =  2.0

     total cpu time spent up to now is        1.2 secs

     total energy              =     -90.03017782 Ry
     Harris-Foulkes estimate   =     -90.24731147 Ry
     estimated scf accuracy    <       0.49028473 Ry

     iteration #  2     ecut=    40.00 Ry     beta= 0.50
     Davidson diagonalization with overlap
     ethr =  1.53E-03,  avg # of iterations =  1.9

     total cpu time spent up to now is        1.8 secs

     total energy              =     -90.04499768 Ry
     Harris-Foulkes estimate   =     -90.07134210 Ry
     estimated scf accuracy    <       0.06000585 Ry

     iteration #  3     ecut=    40.00 Ry     beta= 0.50
     Davidson diagonalization with overlap
     ethr =  1.88E-04,  avg # of iterations =  2.8

     total cpu time spent up to now is        2.5 secs

     total energy              =     -90.04627593 Ry
     Harris-Foulkes estimate   =     -90.05703309 Ry
     estimated scf accuracy    <       0.02564873 Ry

     iteration #  4     ecut=    40.00 Ry     beta= 0.50
     Davidson diagonalization with overlap
     ethr =  8.02E-05,  avg # of iterations =  2.9

     total cpu time spent up to now is        3.3 secs

     total energy              =     -90.04953461 Ry
     Harris-Foulkes estimate   =     -90.05694155 Ry
     estimated scf accuracy    <       0.03080768 Ry

     iteration #  5     ecut=    40.00 Ry     beta= 0.50
     Davidson diagonalization with overlap
     ethr =  8.02E-05,  avg # of iterations =  1.6

     total cpu time spent up to now is        3.8 secs

     total energy              =     -90.05336699 Ry
     Harris-Foulkes estimate   =     -90.05351361 Ry
     estimated scf accuracy    <       0.00068399 Ry

     iteration #  6     ecut=    40.00 Ry     beta= 0.50
     Davidson diagonalization with overlap
     ethr =  2.14E-06,  avg # of iterations =  4.4

     total cpu time spent up to now is        4.7 secs

     total energy              =     -90.05353161 Ry
     Harris-Foulkes estimate   =     -90.05353701 Ry
     estimated scf accuracy    <       0.00006768 Ry

     iteration #  7     ecut=    40.00 Ry     beta= 0.50
     Davidson diagonalization with overlap
     ethr =  2.11E-07,  avg # of iterations =  2.0

     total cpu time spent up to now is        5.3 secs

     total energy              =     -90.05354297 Ry
     Harris-Foulkes estimate   =     -90.05354426 Ry
     estimated scf accuracy    <       0.00000873 Ry

     iteration #  8     ecut=    40.00 Ry     beta= 0.50
     Davidson diagonalization with overlap
     ethr =  2.73E-08,  avg # of iterations =  2.1

     total cpu time spent up to now is        6.0 secs

     total energy              =     -90.05354455 Ry
     Harris-Foulkes estimate   =     -90.05354465 Ry
     estimated scf accuracy    <       0.00000130 Ry

     iteration #  9     ecut=    40.00 Ry     beta= 0.50
     Davidson diagonalization with overlap
     ethr =  4.08E-09,  avg # of iterations =  2.1

     total cpu time spent up to now is        6.6 secs

     End of self-consistent calculation

          k = 0.0000 0.0000 0.0000 (  1327 PWs)   bands (ev):

    -8.7895  -5.7419  -1.9747  -0.4308   0.0771   1.2815   2.7671   6.2504
     6.4371   6.9075   7.7940  10.6935  11.4942  11.8050  12.5408  15.5899
    15.6175  15.7389  17.2271  19.4352

          k =-0.0000-0.0001 0.4941 (  1318 PWs)   bands (ev):

    -7.7105  -4.7770  -0.9087  -0.0232   0.6831   1.7337   2.1796   3.7890
     5.2311   6.7965   7.0535   8.8670   9.0616  10.8373  11.9630  12.8750
    13.8285  15.4208  17.6140  20.1161

          k = 0.0000 0.0002-0.9883 (  1314 PWs)   bands (ev):

    -5.4631  -3.5397  -1.9633  -0.5499   1.0440   2.5743   2.9106   3.1863
     4.6899   5.1734   5.8321   8.0625   8.5494   8.7690  10.0779  11.5308
    13.5679  14.0755  19.4845  19.7347

          k = 0.0000 0.4599 0.0001 (  1322 PWs)   bands (ev):

    -7.9361  -4.9021  -4.5498  -1.9964  -1.2898   3.4733   4.8713   5.9224
     7.0951   7.5151   8.6024  10.6181  11.1955  11.2699  14.0839  14.4049
    14.4070  15.1192  17.1107  18.5809

          k = 0.0000 0.4598 0.4942 (  1309 PWs)   bands (ev):

    -6.8713  -3.9476  -3.5463  -1.1925  -0.2758   2.2653   3.9991   4.5256
     5.5130   6.1203   7.3657   8.4271   9.2175  10.3171  13.0002  13.0914
    14.8629  15.6974  18.0163  20.1955

          k = 0.0000 0.4601-0.9882 (  1328 PWs)   bands (ev):

    -4.7182  -2.6729  -1.3489  -1.3324   0.1144   0.4088   1.4884   2.9979
     4.1879   5.4774   6.5772   8.0994   8.6178   9.2495  11.6877  12.7664
    14.9778  15.0944  18.9243  20.1861

          k = 0.0000 0.4600-0.4940 (  1309 PWs)   bands (ev):

    -6.8706  -3.9474  -3.5475  -1.1953  -0.2761   2.2618   4.0254   4.5265
     5.5061   6.1093   7.3653   8.4104   9.2184  10.3321  13.0057  13.0831
    14.8497  15.7197  18.0130  20.1983

          k =-0.5000 0.0000 0.0000 (  1302 PWs)   bands (ev):

    -7.7297  -7.7206   0.0422   0.0709   0.9627   0.9720   2.4619   2.4638
     7.1223   7.1585   9.3598   9.3896  12.3567  12.3686  12.8752  12.8864
    15.3229  15.3766  19.5060  19.5338

          k =-0.5000-0.0001 0.4941 (  1304 PWs)   bands (ev):

    -6.6778  -6.6650   0.4359   0.4516   1.5921   1.5935   2.9569   2.9721
     4.1344   4.1407   8.7922   8.7960   9.9767   9.9894  12.7023  12.7115
    14.1621  14.1658  18.3679  18.4328

          k =-0.5000 0.0002-0.9883 (  1312 PWs)   bands (ev):

    -4.5699  -4.5365  -1.8786  -1.8614   2.6339   2.6528   3.6393   3.6680
     4.8991   4.9150   6.3211   6.3495   8.1792   8.1838  10.7158  10.7208
    14.4627  14.4923  17.8679  17.9422

          k =-0.5000 0.4599 0.0001 (  1310 PWs)   bands (ev):

    -6.8796  -6.8716  -3.6311  -3.6160   2.7390   2.7429   5.3148   5.3325
     6.5910   6.6017   8.3747   8.4144  11.6174  11.6240  13.3449  13.3716
    15.3546  15.4063  19.4076  19.4406

          k =-0.5000 0.4598 0.4942 (  1312 PWs)   bands (ev):

    -5.8460  -5.8254  -2.7096  -2.6348   2.5590   3.2453   3.5856   3.7656
     5.4323   5.8993   7.4193   7.6223   8.7481   9.2925  13.0782  13.2520
    15.2107  15.5975  19.1093  19.1290

          k =-0.5000 0.4601-0.9882 (  1304 PWs)   bands (ev):

    -3.8094  -3.7776  -1.3710  -1.3696  -0.1971  -0.1731   2.6307   2.6423
     5.2248   5.2434   7.8842   7.9098   8.6897   8.7065  12.3022  12.3198
    13.9656  14.0089  17.2675  17.3276

          k =-0.5000 0.4600-0.4940 (  1312 PWs)   bands (ev):

    -5.8368  -5.8333  -2.6952  -2.6543   2.5558   3.2537   3.6007   3.7570
     5.4455   5.9060   7.3937   7.5877   8.7408   9.3325  13.0893  13.2278
    15.2227  15.6198  19.0687  19.1597

     the Fermi energy is    13.9686 ev

!    total energy              =     -90.05354475 Ry
     Harris-Foulkes estimate   =     -90.05354480 Ry
     estimated scf accuracy    <       0.00000009 Ry

     The total energy is the sum of the following terms:

     one-electron contribution =      28.73872012 Ry
     hartree contribution      =       9.15452465 Ry
     xc contribution           =     -28.37483939 Ry
     ewald contribution        =     -99.57022265 Ry
     smearing contrib. (-TS)   =      -0.00172748 Ry

     convergence has been achieved in   9 iterations

     Forces acting on atoms (cartesian axes, Ry/au):

     atom    1 type  1   force =     0.00003883    0.01961191    0.01594241
     atom    2 type  1   force =    -0.00004505    0.01662175   -0.01337136
     atom    3 type  1   force =     0.00005932    0.03041851   -0.01860680
     atom    4 type  1   force =    -0.00006216    0.03134088    0.01697188
     atom    5 type  1   force =     0.00234033   -0.02252682   -0.00047971
     atom    6 type  1   force =    -0.00234018   -0.02249737   -0.00049531
     atom    7 type  1   force =     0.00002910   -0.02472813   -0.02727757
     atom    8 type  1   force =    -0.00002018   -0.02824074    0.02731644

     Total force =     0.086948     Total SCF correction =     0.000547


     Computing stress (Cartesian axis) and pressure

          total   stress  (Ry/bohr**3)                   (kbar)     P=      501.47
  -0.00380792   0.00000011   0.00000012         -560.16        0.02        0.02
   0.00000011   0.00899422  -0.00003378            0.02     1323.10       -4.97
   0.00000012  -0.00003378   0.00504054            0.02       -4.97      741.49


     BFGS Geometry Optimization

     number of scf cycles    =   1
     number of bfgs steps    =   0

     enthalpy new            =     -90.0535238283 Ry

     new trust radius        =       0.5000000000 bohr
     new conv_thr            =       0.0000010000 Ry

     new unit-cell volume =    356.83624 a.u.^3 (    52.87767 Ang^3 )
     density =      3.01473 g/cm^3

CELL_PARAMETERS (bohr)
   8.864092714  -0.000098402   0.000017697
   0.000105456   7.811124744  -0.002039294
   0.000008925  -0.003811019   5.153724238

ATOMIC_POSITIONS (crystal)
C             0.9861185892        0.8634342022        0.0068643221
C             0.4861299571        0.8643874125        0.4075460165
C             0.9861169551        0.4307571460        0.4476174335
C             0.4861327931        0.4291724013        0.9740986769
C             0.2365622456        0.6064239430        0.2094849591
C             0.7356828083        0.6064166676        0.2094918865
C             0.4861169794        0.0602963255        0.8859667024
C             0.9861276723        0.0608819020        0.5295310029



     Writing output data file ./pp.save/
     NEW-OLD atomic charge density approx. for the potential
     extrapolated charge   36.39708, renormalised to   32.00000

     total cpu time spent up to now is        6.8 secs

     Self-consistent Calculation

     iteration #  1     ecut=    40.00 Ry     beta= 0.50
     Davidson diagonalization with overlap
     ethr =  1.00E-06,  avg # of iterations = 13.9

     total cpu time spent up to now is        9.8 secs

     total energy              =     -90.11370486 Ry
     Harris-Foulkes estimate   =     -92.63896008 Ry
     estimated scf accuracy    <       0.11276226 Ry

     iteration #  2     ecut=    40.00 Ry     beta= 0.50
     Davidson diagonalization with overlap
     ethr =  3.52E-04,  avg # of iterations =  3.1

     total cpu time spent up to now is       10.8 secs

     total energy              =     -90.25237698 Ry
     Harris-Foulkes estimate   =     -90.29419583 Ry
     estimated scf accuracy    <       0.11806551 Ry

     iteration #  3     ecut=    40.00 Ry     beta= 0.50
     Davidson diagonalization with overlap
     ethr =  3.52E-04,  avg # of iterations =  1.6

     total cpu time spent up to now is       11.3 secs

     total energy              =     -90.25526933 Ry
     Harris-Foulkes estimate   =     -90.26221042 Ry
     estimated scf accuracy    <       0.02095319 Ry

     iteration #  4     ecut=    40.00 Ry     beta= 0.50
     Davidson diagonalization with overlap
     ethr =  6.55E-05,  avg # of iterations =  2.0

     total cpu time spent up to now is       11.9 secs

     total energy              =     -90.25529263 Ry
     Harris-Foulkes estimate   =     -90.25735427 Ry
     estimated scf accuracy    <       0.00619413 Ry

     iteration #  5     ecut=    40.00 Ry     beta= 0.50
     Davidson diagonalization with overlap
     ethr =  1.94E-05,  avg # of iterations =  2.7

     total cpu time spent up to now is       12.7 secs

     total energy              =     -90.25559144 Ry
     Harris-Foulkes estimate   =     -90.25648120 Ry
     estimated scf accuracy    <       0.00243833 Ry

     iteration #  6     ecut=    40.00 Ry     beta= 0.50
     Davidson diagonalization with overlap
     ethr =  7.62E-06,  avg # of iterations =  1.9

     total cpu time spent up to now is       13.3 secs

     total energy              =     -90.25587707 Ry
     Harris-Foulkes estimate   =     -90.25593182 Ry
     estimated scf accuracy    <       0.00015913 Ry

     iteration #  7     ecut=    40.00 Ry     beta= 0.50
     Davidson diagonalization with overlap
     ethr =  4.97E-07,  avg # of iterations =  4.1

     total cpu time spent up to now is       14.3 secs

     total energy              =     -90.25591513 Ry
     Harris-Foulkes estimate   =     -90.25593393 Ry
     estimated scf accuracy    <       0.00007419 Ry

     iteration #  8     ecut=    40.00 Ry     beta= 0.50
     Davidson diagonalization with overlap
     ethr =  2.32E-07,  avg # of iterations =  2.0

     total cpu time spent up to now is       15.0 secs

     total energy              =     -90.25592053 Ry
     Harris-Foulkes estimate   =     -90.25592843 Ry
     estimated scf accuracy    <       0.00001648 Ry

     iteration #  9     ecut=    40.00 Ry     beta= 0.50
     Davidson diagonalization with overlap
     ethr =  5.15E-08,  avg # of iterations =  2.0

     total cpu time spent up to now is       15.7 secs

     End of self-consistent calculation

          k = 0.0000 0.0000 0.0000 (  1327 PWs)   bands (ev):

    -9.2974  -5.3484  -2.9807  -2.4427  -1.6532   0.0663   1.2554   3.7839
     5.4241   6.7028   6.9135   7.9577   8.0812   9.1014   9.7910  12.2994
    12.4578  14.1134  15.3740  16.1606

          k =-0.0000 0.0001 0.4576 (  1318 PWs)   bands (ev):

    -8.4086  -4.5986  -2.4670  -1.6251  -1.2208   0.4540   0.5346   2.8519
     4.2554   4.4758   5.8688   5.9334   7.9443   8.0069   9.5407  10.2263
    10.8440  13.4222  16.8058  17.3441

          k = 0.0000-0.0002-0.9152 (  1314 PWs)   bands (ev):

    -6.7340  -4.2686  -2.6243  -1.1909  -0.2899   0.1689   1.5518   1.9655
     2.2602   3.7418   3.8622   5.5381   6.7147   7.9948   8.0622   8.8477
    10.6051  11.9013  17.0123  17.7100

          k = 0.0000 0.4026 0.0003 (  1322 PWs)   bands (ev):

    -8.7082  -5.7529  -4.7378  -2.3966  -2.0409   2.0968   2.1225   3.9701
     5.4551   6.8930   7.1548   7.6277   7.7419   9.6131  10.4117  10.8957
    11.9882  13.4850  14.8233  16.2119

          k = 0.0000 0.4027 0.4579 (  1309 PWs)   bands (ev):

    -7.8427  -4.9107  -3.9874  -1.8585  -1.2695   0.4783   2.5825   2.9808
     3.7532   4.3354   5.7929   6.2811   7.4570   8.4020  10.0461  10.5296
    11.7855  13.0342  16.9998  17.1966

          k = 0.0000 0.4023-0.9149 (  1328 PWs)   bands (ev):

    -6.3093  -3.6118  -2.7297  -2.4409  -0.9062  -0.2012  -0.0682   2.2140
     3.4412   4.3042   4.6851   5.8544   6.1263   6.8789   9.5505  10.4948
    11.2619  13.1194  17.0639  17.2784

          k = 0.0000 0.4024-0.4573 (  1309 PWs)   bands (ev):

    -7.8449  -4.9049  -3.9893  -1.8527  -1.2708   0.4669   2.5894   2.9854
     3.7525   4.3236   5.7870   6.2814   7.4673   8.3962  10.0401  10.5341
    11.8106  13.0275  16.9856  17.1770

          k =-0.5321 0.0000 0.0000 (  1302 PWs)   bands (ev):

    -8.0293  -8.0120  -1.9591  -1.9302  -0.6301  -0.6151   2.5974   2.5996
     5.7126   5.7377   7.3234   7.3525   9.0349   9.0412  10.5005  10.5258
    12.4343  12.4436  15.7536  15.7625

          k =-0.5321 0.0001 0.4576 (  1304 PWs)   bands (ev):

    -7.1686  -7.1469  -1.5739  -1.5397  -0.1551  -0.1475   2.3658   2.3825
     3.4243   3.4279   6.3689   6.3826   7.5057   7.5078  10.3387  10.3496
    11.8088  11.8157  16.5509  16.6230

          k =-0.5321-0.0002-0.9152 (  1312 PWs)   bands (ev):

    -5.6059  -5.5661  -2.7338  -2.7328   1.0026   1.0466   1.6232   1.6300
     3.3161   3.3219   4.9259   4.9521   6.0191   6.0378   9.5161   9.5200
    11.8005  11.8116  16.1696  16.2484

          k =-0.5321 0.4026 0.0003 (  1310 PWs)   bands (ev):

    -7.4427  -7.4250  -4.6025  -4.5809   2.4706   2.4713   3.2892   3.3167
     5.3564   5.3616   6.7749   6.7840   7.8951   7.9139  10.4677  10.4730
    12.3021  12.3644  15.6720  15.7085

          k =-0.5321 0.4027 0.4579 (  1312 PWs)   bands (ev):

    -6.5998  -6.5873  -3.9101  -3.6862   0.8703   2.0431   2.7468   3.2053
     4.0944   4.4596   4.9701   5.7319   7.1598   7.1607   9.9633  10.5032
    12.4227  12.7582  16.6751  16.8588

          k =-0.5321 0.4023-0.9149 (  1304 PWs)   bands (ev):

    -5.1726  -5.1300  -2.4757  -2.4652  -1.3591  -1.3457   1.3837   1.3892
     4.5896   4.5915   5.4674   5.4691   7.0617   7.0635  10.5878  10.5936
    11.1483  11.1708  15.5355  15.5940

          k =-0.5321 0.4024-0.4573 (  1312 PWs)   bands (ev):

    -6.6245  -6.5664  -3.8826  -3.7050   0.8596   2.0606   2.7442   3.1945
     4.1190   4.4393   4.9477   5.7226   7.1547   7.1924   9.9464  10.5212
    12.4289  12.7718  16.7183  16.8139

     the Fermi energy is    10.8023 ev

!    total energy              =     -90.25592389 Ry
     Harris-Foulkes estimate   =     -90.25592411 Ry
     estimated scf accuracy    <       0.00000044 Ry

     The total energy is the sum of the following terms:

     one-electron contribution =      23.29119661 Ry
     hartree contribution      =       9.34704895 Ry
     xc contribution           =     -27.35860801 Ry
     ewald contribution        =     -95.54004054 Ry
     smearing contrib. (-TS)   =       0.00447910 Ry

     convergence has been achieved in   9 iterations

     Forces acting on atoms (cartesian axes, Ry/au):

     atom    1 type  1   force =     0.00003807    0.01502424    0.04135581
     atom    2 type  1   force =    -0.00004080    0.01131371   -0.03970417
     atom    3 type  1   force =     0.00004326   -0.06970432   -0.05592718
     atom    4 type  1   force =    -0.00005883   -0.06881804    0.04997117
     atom    5 type  1   force =    -0.00041741   -0.00206693   -0.00031667
     atom    6 type  1   force =     0.00042040   -0.00203854   -0.00032340
     atom    7 type  1   force =     0.00001670    0.05922048   -0.02856811
     atom    8 type  1   force =    -0.00000140    0.05706941    0.03351253

     Total force =     0.166049     Total SCF correction =     0.000865


     Computing stress (Cartesian axis) and pressure

          total   stress  (Ry/bohr**3)                   (kbar)     P=     -206.41
  -0.00054754  -0.00000006  -0.00000017          -80.55       -0.01       -0.02
  -0.00000006  -0.00191230  -0.00000032           -0.01     -281.31       -0.05
  -0.00000017  -0.00000032  -0.00174967           -0.02       -0.05     -257.39


     number of scf cycles    =   2
     number of bfgs steps    =   1

     enthalpy old            =     -90.0535238283 Ry
     enthalpy new            =     -90.2558996313 Ry

     CASE: enthalpy_new < enthalpy_old

     new trust radius        =       0.0957947024 bohr
     new conv_thr            =       0.0000006970 Ry

     new unit-cell volume =    334.26427 a.u.^3 (    49.53285 Ang^3 )
     density =      3.21830 g/cm^3

CELL_PARAMETERS (bohr)
   8.639336706  -0.000108285  -0.000019701
   0.000096204   7.693317248  -0.002843664
  -0.000007566  -0.004336251   5.029166995

ATOMIC_POSITIONS (crystal)
C             0.9861221490        0.8658151102        0.0149856589
C             0.4861260630        0.8662105433        0.3997869824
C             0.9861212627        0.4215312074        0.4367046825
C             0.4861273381        0.4200799057        0.9838744023
C             0.2365531735        0.6057981903        0.2094154457
C             0.7356921423        0.6057953030        0.2094207675
C             0.4861186005        0.0681539044        0.8799969119
C             0.9861272709        0.0683858357        0.5364161489



     Writing output data file ./pp.save/
     NEW-OLD atomic charge density approx. for the potential
     extrapolated charge   29.83915, renormalised to   32.00000

     total cpu time spent up to now is       15.8 secs

     Self-consistent Calculation

     iteration #  1     ecut=    40.00 Ry     beta= 0.50
     Davidson diagonalization with overlap
     ethr =  1.00E-06,  avg # of iterations =  9.6

     total cpu time spent up to now is       18.5 secs

     total energy              =     -90.24233320 Ry
     Harris-Foulkes estimate   =     -89.05223322 Ry
     estimated scf accuracy    <       0.04422321 Ry

     iteration #  2     ecut=    40.00 Ry     beta= 0.50
     Davidson diagonalization with overlap
     ethr =  1.38E-04,  avg # of iterations =  3.1

     total cpu time spent up to now is       19.6 secs

     total energy              =     -90.28238079 Ry
     Harris-Foulkes estimate   =     -90.31063173 Ry
     estimated scf accuracy    <       0.08988365 Ry

     iteration #  3     ecut=    40.00 Ry     beta= 0.50
     Davidson diagonalization with overlap
     ethr =  1.38E-04,  avg # of iterations =  2.1

     total cpu time spent up to now is       20.4 secs

     total energy              =     -90.28970287 Ry
     Harris-Foulkes estimate   =     -90.29149667 Ry
     estimated scf accuracy    <       0.00646961 Ry

     iteration #  4     ecut=    40.00 Ry     beta= 0.50
     Davidson diagonalization with overlap
     ethr =  2.02E-05,  avg # of iterations =  2.1

     total cpu time spent up to now is       21.1 secs

     total energy              =     -90.28980097 Ry
     Harris-Foulkes estimate   =     -90.29049100 Ry
     estimated scf accuracy    <       0.00319751 Ry

     iteration #  5     ecut=    40.00 Ry     beta= 0.50
     Davidson diagonalization with overlap
     ethr =  9.99E-06,  avg # of iterations =  1.1

     total cpu time spent up to now is       21.7 secs

     total energy              =     -90.28970306 Ry
     Harris-Foulkes estimate   =     -90.29001134 Ry
     estimated scf accuracy    <       0.00078262 Ry

     iteration #  6     ecut=    40.00 Ry     beta= 0.50
     Davidson diagonalization with overlap
     ethr =  2.45E-06,  avg # of iterations =  3.1

     total cpu time spent up to now is       22.8 secs

     total energy              =     -90.28983325 Ry
     Harris-Foulkes estimate   =     -90.28986756 Ry
     estimated scf accuracy    <       0.00014666 Ry

     iteration #  7     ecut=    40.00 Ry     beta= 0.50
     Davidson diagonalization with overlap
     ethr =  4.58E-07,  avg # of iterations =  1.5

     total cpu time spent up to now is       23.5 secs

     total energy              =     -90.28985015 Ry
     Harris-Foulkes estimate   =     -90.28985553 Ry
     estimated scf accuracy    <       0.00002213 Ry

     iteration #  8     ecut=    40.00 Ry     beta= 0.50
     Davidson diagonalization with overlap
     ethr =  6.92E-08,  avg # of iterations =  1.9

     total cpu time spent up to now is       24.3 secs

     total energy              =     -90.28985114 Ry
     Harris-Foulkes estimate   =     -90.28985261 Ry
     estimated scf accuracy    <       0.00000449 Ry

     iteration #  9     ecut=    40.00 Ry     beta= 0.50
     Davidson diagonalization with overlap
     ethr =  1.40E-08,  avg # of iterations =  2.1

     total cpu time spent up to now is       25.1 secs

     End of self-consistent calculation

          k = 0.0000 0.0000 0.0000 (  1327 PWs)   bands (ev):

    -8.9757  -4.7549  -2.4382  -1.8532  -1.4916   0.6647   1.8375   4.3382
     6.3879   7.7215   7.9879   8.4939   9.1383   9.6723  11.0130  13.4864
    13.5279  15.4222  16.9362  17.4928

          k = 0.0000 0.0002 0.4689 (  1318 PWs)   bands (ev):

    -8.0375  -3.9813  -1.8783  -0.9735  -0.8824   0.9889   1.1952   3.5017
     5.0522   5.1956   6.7335   6.8870   8.4827   8.9091  10.4039  11.4281
    11.6383  14.6618  18.5827  18.6469

          k =-0.0000-0.0003-0.9378 (  1314 PWs)   bands (ev):

    -6.2550  -3.7221  -1.9510  -0.4729   0.4954   0.7493   2.0262   2.2741
     3.1721   4.5175   4.6007   6.1091   7.2132   9.0785   9.2916   9.4527
    11.4604  12.8730  18.2009  19.1518

          k = 0.0000 0.4087 0.0004 (  1322 PWs)   bands (ev):

    -8.3211  -5.5146  -4.0983  -1.8734  -1.3699   2.4542   2.5585   4.5261
     6.2656   7.8824   8.2650   8.3723   8.8023  10.7905  11.1373  12.0463
    13.2067  14.7129  16.2732  17.5659

          k = 0.0000 0.4089 0.4693 (  1309 PWs)   bands (ev):

    -7.4063  -4.6196  -3.3288  -1.2872  -0.5429   1.1906   3.2249   3.3850
     4.3200   5.1064   6.5232   7.3136   8.1567   9.4191  11.0977  11.4104
    12.7689  14.1669  18.4432  18.5517

          k = 0.0000 0.4084-0.9375 (  1328 PWs)   bands (ev):

    -5.7723  -3.0567  -2.3812  -1.7232  -0.3163   0.6782   0.7643   2.7073
     4.0425   5.1625   5.1716   6.5021   6.7176   7.6926  10.4761  11.5374
    12.0958  14.2567  18.5455  18.7656

          k = 0.0000 0.4085-0.4686 (  1309 PWs)   bands (ev):

    -7.4093  -4.6123  -3.3316  -1.2813  -0.5447   1.1838   3.2254   3.3904
     4.3204   5.1004   6.5160   7.3156   8.1568   9.4101  11.0888  11.4128
    12.7933  14.1659  18.4152  18.5620

          k =-0.5459 0.0000-0.0000 (  1302 PWs)   bands (ev):

    -7.6351  -7.6176  -1.3482  -1.3265  -0.3839  -0.3610   3.4377   3.4432
     6.6373   6.6425   8.2916   8.3133   9.9152   9.9284  11.4082  11.4281
    13.6215  13.6324  17.1424  17.1569

          k =-0.5459 0.0002 0.4689 (  1304 PWs)   bands (ev):

    -6.7276  -6.7062  -0.9302  -0.9013   0.2216   0.2355   3.0674   3.0812
     4.3078   4.3120   7.2764   7.2997   8.1980   8.2138  11.3222  11.3385
    12.8098  12.8205  18.0159  18.0923

          k =-0.5459-0.0003-0.9379 (  1312 PWs)   bands (ev):

    -5.0729  -5.0344  -2.0970  -2.0953   1.6635   1.7046   2.0089   2.0127
     4.2299   4.2310   5.7887   5.8084   6.5494   6.5634  10.4792  10.4815
    12.9229  12.9324  17.6628  17.7472

          k =-0.5459 0.4087 0.0004 (  1310 PWs)   bands (ev):

    -6.9865  -6.9680  -4.2787  -4.2594   3.1051   3.1165   4.0368   4.0586
     6.0768   6.0862   7.7257   7.7366   8.7946   8.8246  11.4898  11.4974
    13.5588  13.6111  17.1188  17.1348

          k =-0.5459 0.4089 0.4693 (  1312 PWs)   bands (ev):

    -6.0926  -6.0905  -3.5136  -3.3353   1.5897   2.8825   3.3809   4.1011
     4.7556   5.1784   5.7402   6.4599   7.8692   7.9939  10.7518  11.4962
    13.5072  14.0346  17.9814  18.1452

          k =-0.5459 0.4084-0.9375 (  1304 PWs)   bands (ev):

    -4.5867  -4.5450  -1.9495  -1.9324  -0.7393  -0.7381   1.9724   1.9729
     5.4135   5.4278   6.0907   6.0966   7.8423   7.8494  11.6056  11.6203
    12.1096  12.1243  16.9347  16.9846

          k =-0.5459 0.4086-0.4686 (  1312 PWs)   bands (ev):

    -6.1184  -6.0702  -3.4867  -3.3503   1.5820   2.8948   3.3866   4.0833
     4.7719   5.1595   5.7238   6.4548   7.8938   7.9881  10.7316  11.5115
    13.5134  14.0485  18.0226  18.1287

     the Fermi energy is    11.7653 ev

!    total energy              =     -90.28985132 Ry
     Harris-Foulkes estimate   =     -90.28985176 Ry
     estimated scf accuracy    <       0.00000059 Ry

     The total energy is the sum of the following terms:

     one-electron contribution =      26.40123273 Ry
     hartree contribution      =       8.88579288 Ry
     xc contribution           =     -27.76710029 Ry
     ewald contribution        =     -97.81421585 Ry
     smearing contrib. (-TS)   =       0.00443921 Ry

     convergence has been achieved in   9 iterations

     Forces acting on atoms (cartesian axes, Ry/au):

     atom    1 type  1   force =     0.00001574    0.01533704    0.03642271
     atom    2 type  1   force =    -0.00001872    0.01382722   -0.03315818
     atom    3 type  1   force =     0.00001867   -0.02292214   -0.02395751
     atom    4 type  1   force =    -0.00002739   -0.01953065    0.02014799
     atom    5 type  1   force =    -0.00130857    0.00234238   -0.00068767
     atom    6 type  1   force =     0.00131118    0.00235630   -0.00069107
     atom    7 type  1   force =    -0.00000169    0.00321492   -0.02112576
     atom    8 type  1   force =     0.00001078    0.00537493    0.02304950

     Total force =     0.075970     Total SCF correction =     0.001683


     Computing stress (Cartesian axis) and pressure

          total   stress  (Ry/bohr**3)                   (kbar)     P=       12.10
   0.00110848  -0.00000003  -0.00000018          163.06       -0.00       -0.03
  -0.00000003  -0.00035255   0.00000860           -0.00      -51.86        1.26
  -0.00000018   0.00000860  -0.00050907           -0.03        1.26      -74.89


     number of scf cycles    =   3
     number of bfgs steps    =   2

     enthalpy old            =     -90.2558996313 Ry
     enthalpy new            =     -90.2898285973 Ry

     CASE: enthalpy_new < enthalpy_old

     new trust radius        =       0.1043376839 bohr
     new conv_thr            =       0.0000003642 Ry

     new unit-cell volume =    335.83428 a.u.^3 (    49.76551 Ang^3 )
     density =      3.20326 g/cm^3

CELL_PARAMETERS (bohr)
   8.885853558  -0.000119876  -0.000088943
   0.000091536   7.648066140  -0.001781574
  -0.000037491  -0.003482812   4.941676501

ATOMIC_POSITIONS (crystal)
C             0.9861251131        0.8695265320        0.0267652151
C             0.4861225823        0.8694534706        0.3889512450
C             0.9861249536        0.4145274368        0.4271434298
C             0.4861223958        0.4137521364        0.9921219896
C             0.2364158022        0.6059143217        0.2092174792
C             0.7358298769        0.6059155748        0.2092213203
C             0.4861190410        0.0710897608        0.8726243470
C             0.9861282352        0.0715907668        0.5445559741



     Writing output data file ./pp.save/
     NEW-OLD atomic charge density approx. for the potential
     extrapolated charge   32.14960, renormalised to   32.00000

     total cpu time spent up to now is       25.2 secs

     Self-consistent Calculation

     iteration #  1     ecut=    40.00 Ry     beta= 0.50
     Davidson diagonalization with overlap
     ethr =  1.00E-06,  avg # of iterations = 10.1

     total cpu time spent up to now is       28.6 secs

     total energy              =     -90.29241894 Ry
     Harris-Foulkes estimate   =     -90.39043349 Ry
     estimated scf accuracy    <       0.01726628 Ry

     iteration #  2     ecut=    40.00 Ry     beta= 0.50
     Davidson diagonalization with overlap
     ethr =  5.40E-05,  avg # of iterations =  2.9

     total cpu time spent up to now is       29.9 secs

     total energy              =     -90.29543102 Ry
     Harris-Foulkes estimate   =     -90.30481394 Ry
     estimated scf accuracy    <       0.02794539 Ry

     iteration #  3     ecut=    40.00 Ry     beta= 0.50
     Davidson diagonalization with overlap
     ethr =  5.40E-05,  avg # of iterations =  2.1

     total cpu time spent up to now is       30.9 secs

     total energy              =     -90.29972707 Ry
     Harris-Foulkes estimate   =     -90.29997577 Ry
     estimated scf accuracy    <       0.00074421 Ry

     iteration #  4     ecut=    40.00 Ry     beta= 0.50
     Davidson diagonalization with overlap
     ethr =  2.33E-06,  avg # of iterations =  3.6

     total cpu time spent up to now is       32.4 secs

     total energy              =     -90.29986635 Ry
     Harris-Foulkes estimate   =     -90.29992488 Ry
     estimated scf accuracy    <       0.00016738 Ry

     iteration #  5     ecut=    40.00 Ry     beta= 0.50
     Davidson diagonalization with overlap
     ethr =  5.23E-07,  avg # of iterations =  2.2

     total cpu time spent up to now is       33.5 secs

     total energy              =     -90.29986897 Ry
     Harris-Foulkes estimate   =     -90.29995938 Ry
     estimated scf accuracy    <       0.00039285 Ry

     iteration #  6     ecut=    40.00 Ry     beta= 0.50
     Davidson diagonalization with overlap
     ethr =  5.23E-07,  avg # of iterations =  1.9

     total cpu time spent up to now is       34.5 secs

     total energy              =     -90.29991164 Ry
     Harris-Foulkes estimate   =     -90.29991225 Ry
     estimated scf accuracy    <       0.00000378 Ry

     iteration #  7     ecut=    40.00 Ry     beta= 0.50
     Davidson diagonalization with overlap
     ethr =  1.18E-08,  avg # of iterations =  3.0

     total cpu time spent up to now is       36.0 secs

     total energy              =     -90.29991288 Ry
     Harris-Foulkes estimate   =     -90.29991290 Ry
     estimated scf accuracy    <       0.00000047 Ry

     iteration #  8     ecut=    40.00 Ry     beta= 0.50
     Davidson diagonalization with overlap
     ethr =  1.46E-09,  avg # of iterations =  2.0

     total cpu time spent up to now is       37.1 secs

     End of self-consistent calculation

          k = 0.0000 0.0000 0.0000 (  1327 PWs)   bands (ev):

    -8.9734  -5.1385  -2.3885  -2.0398  -1.6310   0.4363   1.4714   4.3260
     6.5528   7.4855   7.5791   8.3514   9.6737   9.6816  11.0879  13.3775
    13.6539  15.0221  17.4824  17.6563

          k = 0.0000 0.0001 0.4772 (  1318 PWs)   bands (ev):

    -7.9937  -4.3021  -1.7853  -1.1255  -0.9536   0.8048   1.1118   3.3451
     4.8958   5.0526   6.8751   7.0197   8.4187   8.6437  10.2176  11.3630
    11.5878  14.4981  18.1915  18.7376

          k =-0.0000-0.0002-0.9545 (  1314 PWs)   bands (ev):

    -6.0971  -3.7182  -1.9984  -0.6888   0.3979   0.7250   1.8372   2.0526
     3.1650   4.5969   4.6463   6.0874   6.8788   8.8694   9.1319   9.3326
    11.3918  12.7896  18.0467  18.5838

          k = 0.0000 0.4111 0.0003 (  1322 PWs)   bands (ev):

    -8.2693  -5.6266  -4.4450  -2.2650  -1.5393   2.3334   2.5192   4.3109
     6.4014   7.8179   7.8600   8.3889   9.1943  10.5667  11.1716  12.3795
    13.2479  14.4381  16.4587  17.8416

          k = 0.0000 0.4112 0.4775 (  1309 PWs)   bands (ev):

    -7.3100  -4.7012  -3.6133  -1.6094  -0.6799   1.3395   3.1329   3.2968
     4.2789   5.0169   6.3865   7.2755   8.1488   9.2936  11.0805  11.2463
    12.7435  13.8228  18.1256  18.2838

          k =-0.0000 0.4109-0.9542 (  1328 PWs)   bands (ev):

    -5.5534  -3.0628  -2.5029  -1.6685  -0.4118   0.3927   0.6779   2.4098
     3.7664   5.1119   5.2406   6.4722   6.6533   7.7262  10.4363  11.1329
    11.9342  14.1517  17.7847  18.8754

          k = 0.0000 0.4110-0.4769 (  1309 PWs)   bands (ev):

    -7.3126  -4.6960  -3.6150  -1.6047  -0.6812   1.3384   3.1297   3.3002
     4.2834   5.0041   6.3804   7.2775   8.1523   9.2886  11.0725  11.2496
    12.7627  13.8180  18.1010  18.3089

          k =-0.5308 0.0000-0.0000 (  1302 PWs)   bands (ev):

    -7.7213  -7.7074  -1.4307  -1.4174  -0.5880  -0.5833   3.0257   3.0274
     6.6331   6.6359   8.1730   8.1867  10.2470  10.2560  11.2191  11.2323
    13.5496  13.5499  17.4591  17.4902

          k =-0.5308 0.0001 0.4772 (  1304 PWs)   bands (ev):

    -6.7703  -6.7539  -0.9509  -0.9341   0.0617   0.0621   3.0041   3.0161
     4.0093   4.0141   7.2956   7.3156   8.2087   8.2128  11.1536  11.1664
    12.5769  12.5807  17.6616  17.7133

          k =-0.5308-0.0002-0.9545 (  1312 PWs)   bands (ev):

    -4.9974  -4.9684  -2.1159  -2.1109   1.4657   1.4828   1.9587   1.9627
     4.2208   4.2224   5.7624   5.7800   6.2957   6.2982  10.2273  10.2277
    12.7451  12.7533  17.1361  17.1966

          k =-0.5308 0.4111 0.0003 (  1310 PWs)   bands (ev):

    -7.0216  -7.0054  -4.4842  -4.4762   2.7804   2.7867   3.8383   3.8512
     5.8340   5.8510   7.5980   7.6138   9.0340   9.0549  11.6907  11.6912
    13.7704  13.8016  17.4862  17.4969

          k =-0.5308 0.4113 0.4775 (  1312 PWs)   bands (ev):

    -6.0823  -6.0807  -3.6754  -3.5366   1.6131   2.9423   3.1161   3.9081
     4.5507   5.0541   5.8345   6.1866   7.7030   7.8352  10.6111  11.3768
    13.4726  14.0541  17.6386  17.6715

          k =-0.5308 0.4109-0.9542 (  1304 PWs)   bands (ev):

    -4.4455  -4.4127  -2.0816  -2.0741  -0.7921  -0.7866   1.9467   1.9468
     5.1731   5.1756   5.9616   5.9703   7.6140   7.6255  11.4503  11.4641
    11.8993  11.9097  16.3967  16.4282

          k =-0.5308 0.4110-0.4769 (  1312 PWs)   bands (ev):

    -6.1039  -6.0639  -3.6616  -3.5408   1.6168   2.9514   3.1068   3.8974
     4.5571   5.0424   5.8230   6.1862   7.6965   7.8552  10.5946  11.3906
    13.4780  14.0642  17.6519  17.6717

     the Fermi energy is    11.7558 ev

!    total energy              =     -90.29991293 Ry
     Harris-Foulkes estimate   =     -90.29991296 Ry
     estimated scf accuracy    <       0.00000008 Ry

     The total energy is the sum of the following terms:

     one-electron contribution =      26.23100557 Ry
     hartree contribution      =       8.85625199 Ry
     xc contribution           =     -27.76545942 Ry
     ewald contribution        =     -97.62474922 Ry
     smearing contrib. (-TS)   =       0.00303815 Ry

     convergence has been achieved in   8 iterations

     Forces acting on atoms (cartesian axes, Ry/au):

     atom    1 type  1   force =    -0.00000594    0.02287372    0.02350005
     atom    2 type  1   force =     0.00000920    0.02225539   -0.01969350
     atom    3 type  1   force =    -0.00000709    0.02250147   -0.00534268
     atom    4 type  1   force =     0.00000311    0.02295117    0.00340496
     atom    5 type  1   force =    -0.00092676   -0.00948186   -0.00067978
     atom    6 type  1   force =     0.00092528   -0.00947452   -0.00068078
     atom    7 type  1   force =    -0.00001630   -0.03553816   -0.01474114
     atom    8 type  1   force =     0.00001850   -0.03608720    0.01423289

     Total force =     0.078735     Total SCF correction =     0.000395


     Computing stress (Cartesian axis) and pressure

          total   stress  (Ry/bohr**3)                   (kbar)     P=       16.63
  -0.00051193   0.00000003  -0.00000022          -75.31        0.01       -0.03
   0.00000003   0.00084225   0.00000513            0.01      123.90        0.76
  -0.00000022   0.00000513   0.00000880           -0.03        0.76        1.29


     number of scf cycles    =   4
     number of bfgs steps    =   3

     enthalpy old            =     -90.2898285973 Ry
     enthalpy new            =     -90.2998901008 Ry

     CASE: enthalpy_new < enthalpy_old

     new trust radius        =       0.0486307891 bohr
     new conv_thr            =       0.0000003609 Ry

     new unit-cell volume =    334.63026 a.u.^3 (    49.58709 Ang^3 )
     density =      3.21478 g/cm^3

CELL_PARAMETERS (bohr)
   8.855429428  -0.000117116  -0.000158287
   0.000093315   7.710622363  -0.000664844
  -0.000069419  -0.002603864   4.900790938

ATOMIC_POSITIONS (crystal)
C             0.9861253695        0.8736137674        0.0343097216
C             0.4861223906        0.8733275339        0.3823361338
C             0.9861253043        0.4153064948        0.4233960934
C             0.4861212900        0.4147773531        0.9951379667
C             0.2362954879        0.6047354744        0.2090435609
C             0.7359502028        0.6047388557        0.2090468551
C             0.4861178487        0.0673829600        0.8679676857
C             0.9861301062        0.0678875607        0.5493629828



     Writing output data file ./pp.save/
     NEW-OLD atomic charge density approx. for the potential
     extrapolated charge   31.88486, renormalised to   32.00000

     total cpu time spent up to now is       37.2 secs

     Self-consistent Calculation

     iteration #  1     ecut=    40.00 Ry     beta= 0.50
     Davidson diagonalization with overlap
     ethr =  1.00E-06,  avg # of iterations =  9.2

     total cpu time spent up to now is       41.3 secs

     total energy              =     -90.30481588 Ry
     Harris-Foulkes estimate   =     -90.23935203 Ry
     estimated scf accuracy    <       0.00250880 Ry

     iteration #  2     ecut=    40.00 Ry     beta= 0.50
     Davidson diagonalization with overlap
     ethr =  7.84E-06,  avg # of iterations =  2.3

     total cpu time spent up to now is       42.7 secs

     total energy              =     -90.30527173 Ry
     Harris-Foulkes estimate   =     -90.30569199 Ry
     estimated scf accuracy    <       0.00095628 Ry

     iteration #  3     ecut=    40.00 Ry     beta= 0.50
     Davidson diagonalization with overlap
     ethr =  2.99E-06,  avg # of iterations =  2.0

     total cpu time spent up to now is       44.0 secs

     total energy              =     -90.30538834 Ry
     Harris-Foulkes estimate   =     -90.30548130 Ry
     estimated scf accuracy    <       0.00021095 Ry

     iteration #  4     ecut=    40.00 Ry     beta= 0.50
     Davidson diagonalization with overlap
     ethr =  6.59E-07,  avg # of iterations =  2.1

     total cpu time spent up to now is       45.3 secs

     total energy              =     -90.30540465 Ry
     Harris-Foulkes estimate   =     -90.30550122 Ry
     estimated scf accuracy    <       0.00038831 Ry

     iteration #  5     ecut=    40.00 Ry     beta= 0.50
     Davidson diagonalization with overlap
     ethr =  6.59E-07,  avg # of iterations =  1.6

     total cpu time spent up to now is       46.5 secs

     total energy              =     -90.30544898 Ry
     Harris-Foulkes estimate   =     -90.30545067 Ry
     estimated scf accuracy    <       0.00000525 Ry

     iteration #  6     ecut=    40.00 Ry     beta= 0.50
     Davidson diagonalization with overlap
     ethr =  1.64E-08,  avg # of iterations =  3.0

     total cpu time spent up to now is       48.4 secs

     total energy              =     -90.30545073 Ry
     Harris-Foulkes estimate   =     -90.30545152 Ry
     estimated scf accuracy    <       0.00000268 Ry

     iteration #  7     ecut=    40.00 Ry     beta= 0.50
     Davidson diagonalization with overlap
     ethr =  8.39E-09,  avg # of iterations =  1.9

     total cpu time spent up to now is       49.8 secs

     End of self-consistent calculation

          k = 0.0000 0.0000 0.0000 (  1327 PWs)   bands (ev):

    -8.9500  -5.0712  -2.5779  -1.9938  -1.4903   0.4347   1.6150   4.1960
     6.5793   7.4838   7.5981   8.3568   9.8266   9.9561  11.3499  13.4577
    13.6776  15.0677  17.8081  17.8938

          k = 0.0000 0.0000 0.4812 (  1318 PWs)   bands (ev):

    -7.9510  -4.2128  -1.9078  -1.0611  -0.7898   0.9247   1.1530   3.3508
     4.8034   4.9602   7.0100   7.0653   8.5244   8.7491  10.3770  11.4646
    11.6764  14.5367  18.0978  18.9236

          k =-0.0000-0.0001-0.9624 (  1314 PWs)   bands (ev):

    -6.0068  -3.5913  -1.9251  -0.4917   0.4956   0.5454   1.8471   2.2282
     2.9909   4.6527   4.7300   6.0793   6.9297   8.9964   9.1634   9.4475
    11.3980  12.9147  18.0797  18.4589

          k = 0.0000 0.4078 0.0002 (  1322 PWs)   bands (ev):

    -8.2605  -5.6385  -4.4005  -2.1842  -1.5041   2.2870   2.5454   4.4366
     6.4050   7.7350   7.9549   8.3451   9.3978  10.7930  11.0866  12.5700
    13.3739  14.5983  16.5451  18.0658

          k = 0.0000 0.4078 0.4814 (  1309 PWs)   bands (ev):

    -7.2816  -4.6918  -3.5445  -1.5049  -0.6264   1.4294   3.2002   3.2783
     4.3749   4.9757   6.3517   7.3764   8.2151   9.5352  11.1265  11.2476
    12.6896  13.9017  18.0561  18.3589

          k =-0.0000 0.4077-0.9622 (  1328 PWs)   bands (ev):

    -5.4737  -2.9408  -2.4280  -1.6215  -0.2998   0.3803   0.7650   2.3744
     3.8665   5.1464   5.3529   6.5214   6.6483   7.8438  10.3835  11.2268
    11.8449  14.2712  17.6906  18.7982

          k =-0.0000 0.4078-0.4810 (  1309 PWs)   bands (ev):

    -7.2833  -4.6885  -3.5455  -1.5016  -0.6272   1.4278   3.1985   3.2804
     4.3766   4.9669   6.3514   7.3779   8.2163   9.5314  11.1214  11.2504
    12.7009  13.8986  18.0364  18.3714

          k =-0.5326 0.0000-0.0000 (  1302 PWs)   bands (ev):

    -7.6840  -7.6753  -1.5759  -1.5697  -0.4333  -0.4317   3.1146   3.1160
     6.6380   6.6382   8.1904   8.2017  10.4538  10.4601  11.2776  11.2865
    13.6585  13.6635  17.6875  17.7039

          k =-0.5326 0.0000 0.4812 (  1304 PWs)   bands (ev):

    -6.7131  -6.7031  -0.9977  -0.9890   0.2031   0.2046   3.0094   3.0165
     4.0762   4.0782   7.3506   7.3641   8.3055   8.3063  11.1349  11.1427
    12.7394  12.7420  17.7570  17.7859

          k =-0.5326-0.0001-0.9624 (  1312 PWs)   bands (ev):

    -4.8877  -4.8710  -2.0048  -2.0038   1.3647   1.3752   2.0270   2.0308
     4.2299   4.2337   5.9211   5.9308   6.3308   6.3325  10.3791  10.3813
    12.6937  12.6958  17.1940  17.2265

          k =-0.5326 0.4078 0.0002 (  1310 PWs)   bands (ev):

    -6.9997  -6.9889  -4.4751  -4.4726   2.8712   2.8757   3.8966   3.9037
     5.8796   5.8890   7.5338   7.5413   9.1330   9.1457  11.8094  11.8098
    14.0028  14.0224  17.5497  17.5583

          k =-0.5326 0.4078 0.4814 (  1312 PWs)   bands (ev):

    -6.0453  -6.0398  -3.6347  -3.5176   1.7648   2.9611   3.2357   3.9552
     4.6443   5.0464   5.9060   6.1886   7.7083   7.9833  10.5630  11.3122
    13.6093  14.1891  17.6244  17.6925

          k =-0.5326 0.4077-0.9622 (  1304 PWs)   bands (ev):

    -4.3469  -4.3270  -1.9375  -1.9348  -0.8442  -0.8421   2.0070   2.0073
     5.2691   5.2729   6.0127   6.0217   7.6612   7.6712  11.4944  11.5007
    11.9176  11.9247  16.3855  16.3995

          k =-0.5326 0.4078-0.4810 (  1312 PWs)   bands (ev):

    -6.0592  -6.0290  -3.6284  -3.5173   1.7662   2.9684   3.2290   3.9477
     4.6456   5.0377   5.9003   6.1952   7.7025   7.9948  10.5538  11.3205
    13.6103  14.1948  17.6142  17.7120

     the Fermi energy is    11.8255 ev

!    total energy              =     -90.30545107 Ry
     Harris-Foulkes estimate   =     -90.30545122 Ry
     estimated scf accuracy    <       0.00000030 Ry

     The total energy is the sum of the following terms:

     one-electron contribution =      26.43845147 Ry
     hartree contribution      =       8.82284205 Ry
     xc contribution           =     -27.78139427 Ry
     ewald contribution        =     -97.78685551 Ry
     smearing contrib. (-TS)   =       0.00150519 Ry

     convergence has been achieved in   7 iterations

     Forces acting on atoms (cartesian axes, Ry/au):

     atom    1 type  1   force =    -0.00001224    0.00768948    0.01839043
     atom    2 type  1   force =     0.00001684    0.00731383   -0.01626667
     atom    3 type  1   force =    -0.00000901   -0.00694531    0.00623653
     atom    4 type  1   force =     0.00000648   -0.00725384   -0.00747060
     atom    5 type  1   force =    -0.00064846   -0.00886631   -0.00032622
     atom    6 type  1   force =     0.00064433   -0.00885820   -0.00032725
     atom    7 type  1   force =    -0.00003122    0.00909078    0.00100862
     atom    8 type  1   force =     0.00003329    0.00782956   -0.00124482

     Total force =     0.034866     Total SCF correction =     0.000701


     Computing stress (Cartesian axis) and pressure

          total   stress  (Ry/bohr**3)                   (kbar)     P=       24.36
  -0.00009168   0.00000002  -0.00000031          -13.49        0.00       -0.05
   0.00000002   0.00047337   0.00000280            0.00       69.63        0.41
  -0.00000031   0.00000280   0.00011506           -0.05        0.41       16.93


     number of scf cycles    =   5
     number of bfgs steps    =   4

     enthalpy old            =     -90.2998901008 Ry
     enthalpy new            =     -90.3054283249 Ry

     CASE: enthalpy_new < enthalpy_old

     new trust radius        =       0.0579144889 bohr
     new conv_thr            =       0.0000001839 Ry

     new unit-cell volume =    336.20991 a.u.^3 (    49.82117 Ang^3 )
     density =      3.19968 g/cm^3

CELL_PARAMETERS (bohr)
   8.838236270  -0.000111713  -0.000307218
   0.000097063   7.802408437   0.000587987
  -0.000138510  -0.001627825   4.875466939

ATOMIC_POSITIONS (crystal)
C             0.9861243133        0.8775287210        0.0443986701
C             0.4861239605        0.8769941078        0.3733549806
C             0.9861248531        0.4128098240        0.4218850990
C             0.4861209265        0.4124021617        0.9957866570
C             0.2361403481        0.6023654374        0.2088544236
C             0.7361049137        0.6023721090        0.2088569851
C             0.4861133929        0.0685210464        0.8651570954
C             0.9861352917        0.0687765929        0.5523070893



     Writing output data file ./pp.save/
     NEW-OLD atomic charge density approx. for the potential
     extrapolated charge   32.15035, renormalised to   32.00000

     total cpu time spent up to now is       49.8 secs

     Self-consistent Calculation

     iteration #  1     ecut=    40.00 Ry     beta= 0.50
     Davidson diagonalization with overlap
     ethr =  1.00E-06,  avg # of iterations =  9.3

     total cpu time spent up to now is       54.9 secs

     total energy              =     -90.30756768 Ry
     Harris-Foulkes estimate   =     -90.39664635 Ry
     estimated scf accuracy    <       0.00181738 Ry

     iteration #  2     ecut=    40.00 Ry     beta= 0.50
     Davidson diagonalization with overlap
     ethr =  5.68E-06,  avg # of iterations =  2.9

     total cpu time spent up to now is       56.9 secs

     total energy              =     -90.30793159 Ry
     Harris-Foulkes estimate   =     -90.30842363 Ry
     estimated scf accuracy    <       0.00121577 Ry

     iteration #  3     ecut=    40.00 Ry     beta= 0.50
     Davidson diagonalization with overlap
     ethr =  3.80E-06,  avg # of iterations =  2.1

     total cpu time spent up to now is       58.5 secs

     total energy              =     -90.30812697 Ry
     Harris-Foulkes estimate   =     -90.30819050 Ry
     estimated scf accuracy    <       0.00017174 Ry

     iteration #  4     ecut=    40.00 Ry     beta= 0.50
     Davidson diagonalization with overlap
     ethr =  5.37E-07,  avg # of iterations =  2.0

     total cpu time spent up to now is       60.2 secs

     total energy              =     -90.30815627 Ry
     Harris-Foulkes estimate   =     -90.30817813 Ry
     estimated scf accuracy    <       0.00007079 Ry

     iteration #  5     ecut=    40.00 Ry     beta= 0.50
     Davidson diagonalization with overlap
     ethr =  2.21E-07,  avg # of iterations =  1.9

     total cpu time spent up to now is       61.8 secs

     total energy              =     -90.30816504 Ry
     Harris-Foulkes estimate   =     -90.30817002 Ry
     estimated scf accuracy    <       0.00001473 Ry

     iteration #  6     ecut=    40.00 Ry     beta= 0.50
     Davidson diagonalization with overlap
     ethr =  4.60E-08,  avg # of iterations =  2.0

     total cpu time spent up to now is       63.4 secs

     total energy              =     -90.30816781 Ry
     Harris-Foulkes estimate   =     -90.30816993 Ry
     estimated scf accuracy    <       0.00000834 Ry

     iteration #  7     ecut=    40.00 Ry     beta= 0.50
     Davidson diagonalization with overlap
     ethr =  2.60E-08,  avg # of iterations =  1.1

     total cpu time spent up to now is       64.7 secs

     End of self-consistent calculation

          k = 0.0000 0.0000 0.0000 (  1327 PWs)   bands (ev):

    -8.9341  -5.0405  -2.8009  -1.9725  -1.5833   0.3451   1.5483   4.0598
     6.6464   7.3993   7.6734   8.1371   9.6251  10.1113  11.5399  13.3647
    13.5483  15.0038  17.9122  18.0589

          k = 0.0000-0.0000 0.4837 (  1318 PWs)   bands (ev):

    -7.9231  -4.1749  -2.0736  -1.0300  -0.8593   0.8582   1.1603   3.2939
     4.7054   4.8484   7.0375   7.0413   8.3641   8.7320  10.4508  11.2999
    11.6934  14.4450  17.8358  18.9394

          k =-0.0000 0.0001-0.9674 (  1314 PWs)   bands (ev):

    -5.9480  -3.5650  -1.8109  -0.4496   0.2738   0.5432   1.8167   2.1931
     2.7186   4.6425   4.7877   6.0034   6.7300   8.9860   9.1520   9.5027
    11.2796  12.7559  17.8989  18.2972

          k = 0.0000 0.4030 0.0001 (  1322 PWs)   bands (ev):

    -8.2426  -5.7607  -4.3836  -2.2187  -1.4899   2.1859   2.3627   4.3723
     6.4009   7.6068   8.0184   8.0623   9.4664  10.8368  10.9405  12.5786
    13.3344  14.6217  16.3552  18.2860

          k = 0.0000 0.4030 0.4838 (  1309 PWs)   bands (ev):

    -7.2512  -4.8012  -3.5192  -1.5282  -0.6028   1.4792   3.1270   3.1953
     4.3247   4.9100   6.1413   7.3955   8.0374   9.7357  11.0418  11.1478
    12.4777  13.8132  17.7914  18.1126

          k =-0.0000 0.4031-0.9673 (  1328 PWs)   bands (ev):

    -5.4085  -2.9394  -2.5440  -1.5222  -0.3067   0.4049   0.8064   2.2849
     3.7871   5.0874   5.3788   6.3407   6.4535   7.9467  10.1937  11.2662
    11.6130  14.1883  17.4072  18.4599

          k =-0.0000 0.4030-0.4836 (  1309 PWs)   bands (ev):

    -7.2519  -4.7997  -3.5197  -1.5264  -0.6033   1.4747   3.1278   3.1965
     4.3238   4.9101   6.1489   7.3965   8.0299   9.7326  11.0401  11.1473
    12.4796  13.8164  17.7776  18.1176

          k =-0.5337 0.0000-0.0000 (  1302 PWs)   bands (ev):

    -7.6583  -7.6575  -1.7773  -1.7744  -0.5147  -0.5101   3.1921   3.1935
     6.6793   6.6816   8.0642   8.0737  10.3811  10.3899  11.2627  11.2639
    13.6074  13.6172  17.6887  17.6912

          k =-0.5336-0.0000 0.4837 (  1304 PWs)   bands (ev):

    -6.6753  -6.6746  -1.1300  -1.1293   0.1278   0.1311   3.0029   3.0058
     4.1379   4.1394   7.2995   7.3055   8.2548   8.2572  11.0122  11.0172
    12.6794  12.6829  17.6830  17.6874

          k =-0.5337 0.0001-0.9674 (  1312 PWs)   bands (ev):

    -4.8212  -4.8210  -1.9432  -1.9380   1.1132   1.1226   1.9861   1.9865
     4.1770   4.1815   6.0581   6.0583   6.1906   6.1938  10.4331  10.4395
    12.5283  12.5376  17.0671  17.0709

          k =-0.5337 0.4030 0.0001 (  1310 PWs)   bands (ev):

    -6.9718  -6.9703  -4.5855  -4.5840   2.7737   2.7771   3.9271   3.9296
     5.8600   5.8601   7.4097   7.4209   9.0108   9.0162  11.8318  11.8350
    14.0334  14.0374  17.4011  17.4094

          k =-0.5336 0.4030 0.4838 (  1312 PWs)   bands (ev):

    -6.0161  -5.9986  -3.7261  -3.6221   1.8053   2.9897   3.1739   3.9732
     4.6450   4.9627   5.8713   6.0883   7.6006   7.9583  10.3432  11.1291
    13.5868  14.1968  17.3534  17.5429

          k =-0.5337 0.4031-0.9673 (  1304 PWs)   bands (ev):

    -4.2723  -4.2709  -1.9793  -1.9790  -0.8649  -0.8623   1.9683   1.9708
     5.2887   5.2920   5.9070   5.9121   7.5792   7.5873  11.4257  11.4271
    11.8331  11.8388  16.1785  16.1826

          k =-0.5337 0.4030-0.4836 (  1312 PWs)   bands (ev):

    -6.0182  -5.9978  -3.7261  -3.6188   1.8006   2.9889   3.1773   3.9688
     4.6429   4.9660   5.8711   6.0983   7.5947   7.9574  10.3409  11.1289
    13.5862  14.1968  17.3525  17.5439

     the Fermi energy is    11.7798 ev

!    total energy              =     -90.30816892 Ry
     Harris-Foulkes estimate   =     -90.30816893 Ry
     estimated scf accuracy    <       0.00000016 Ry

     The total energy is the sum of the following terms:

     one-electron contribution =      26.46191239 Ry
     hartree contribution      =       8.73663065 Ry
     xc contribution           =     -27.74743954 Ry
     ewald contribution        =     -97.76000279 Ry
     smearing contrib. (-TS)   =       0.00073036 Ry

     convergence has been achieved in   7 iterations

     Forces acting on atoms (cartesian axes, Ry/au):

     atom    1 type  1   force =    -0.00001358   -0.00266893    0.00506695
     atom    2 type  1   force =     0.00002028   -0.00181090   -0.00569102
     atom    3 type  1   force =    -0.00000029   -0.00165050    0.00577678
     atom    4 type  1   force =    -0.00000005   -0.00101969   -0.00576161
     atom    5 type  1   force =     0.00017071   -0.00099244    0.00007467
     atom    6 type  1   force =    -0.00017766   -0.00097597    0.00007503
     atom    7 type  1   force =    -0.00006183    0.00422082    0.00038115
     atom    8 type  1   force =     0.00006241    0.00489760    0.00007806

     Total force =     0.013519     Total SCF correction =     0.000423


     Computing stress (Cartesian axis) and pressure

          total   stress  (Ry/bohr**3)                   (kbar)     P=        7.84
   0.00019708  -0.00000000  -0.00000051           28.99       -0.00       -0.08
  -0.00000000   0.00010582   0.00000257           -0.00       15.57        0.38
  -0.00000051   0.00000257  -0.00014311           -0.08        0.38      -21.05


     number of scf cycles    =   6
     number of bfgs steps    =   5

     enthalpy old            =     -90.3054283249 Ry
     enthalpy new            =     -90.3081460676 Ry

     CASE: enthalpy_new < enthalpy_old

     new trust radius        =       0.0344063783 bohr
     new conv_thr            =       0.0000000578 Ry

     new unit-cell volume =    337.05417 a.u.^3 (    49.94628 Ang^3 )
     density =      3.19166 g/cm^3

CELL_PARAMETERS (bohr)
   8.875313420  -0.000111810  -0.000549720
   0.000097838   7.863088941   0.001678033
  -0.000249158  -0.000764121   4.829729535

ATOMIC_POSITIONS (crystal)
C             0.9861224932        0.8791704592        0.0507887020
C             0.4861268004        0.8786721634        0.3673435606
C             0.9861249542        0.4115814849        0.4216231219
C             0.4861203234        0.4114017289        0.9955836819
C             0.2360908967        0.6011475843        0.2087774114
C             0.7361533718        0.6011594473        0.2087796563
C             0.4861040177        0.0691652411        0.8630546112
C             0.9861451426        0.0694718908        0.5546502547



     Writing output data file ./pp.save/
     NEW-OLD atomic charge density approx. for the potential
     extrapolated charge   32.08015, renormalised to   32.00000

     total cpu time spent up to now is       64.8 secs

     Self-consistent Calculation

     iteration #  1     ecut=    40.00 Ry     beta= 0.50
     Davidson diagonalization with overlap
     ethr =  1.00E-06,  avg # of iterations =  8.6

     total cpu time spent up to now is       70.2 secs

     total energy              =     -90.30812939 Ry
     Harris-Foulkes estimate   =     -90.35637883 Ry
     estimated scf accuracy    <       0.00177309 Ry

     iteration #  2     ecut=    40.00 Ry     beta= 0.50
     Davidson diagonalization with overlap
     ethr =  5.54E-06,  avg # of iterations =  2.9

     total cpu time spent up to now is       72.5 secs

     total energy              =     -90.30838329 Ry
     Harris-Foulkes estimate   =     -90.30935908 Ry
     estimated scf accuracy    <       0.00292820 Ry

     iteration #  3     ecut=    40.00 Ry     beta= 0.50
     Davidson diagonalization with overlap
     ethr =  5.54E-06,  avg # of iterations =  2.1

     total cpu time spent up to now is       74.4 secs

     total energy              =     -90.30882712 Ry
     Harris-Foulkes estimate   =     -90.30886100 Ry
     estimated scf accuracy    <       0.00009449 Ry

     iteration #  4     ecut=    40.00 Ry     beta= 0.50
     Davidson diagonalization with overlap
     ethr =  2.95E-07,  avg # of iterations =  3.0

     total cpu time spent up to now is       76.9 secs

     total energy              =     -90.30884826 Ry
     Harris-Foulkes estimate   =     -90.30885431 Ry
     estimated scf accuracy    <       0.00002197 Ry

     iteration #  5     ecut=    40.00 Ry     beta= 0.50
     Davidson diagonalization with overlap
     ethr =  6.87E-08,  avg # of iterations =  2.0

     total cpu time spent up to now is       78.8 secs

     total energy              =     -90.30885114 Ry
     Harris-Foulkes estimate   =     -90.30885182 Ry
     estimated scf accuracy    <       0.00000255 Ry

     iteration #  6     ecut=    40.00 Ry     beta= 0.50
     Davidson diagonalization with overlap
     ethr =  7.95E-09,  avg # of iterations =  2.0

     total cpu time spent up to now is       80.7 secs

     total energy              =     -90.30885147 Ry
     Harris-Foulkes estimate   =     -90.30885197 Ry
     estimated scf accuracy    <       0.00000163 Ry

     iteration #  7     ecut=    40.00 Ry     beta= 0.50
     Davidson diagonalization with overlap
     ethr =  5.08E-09,  avg # of iterations =  1.4

     total cpu time spent up to now is       82.4 secs

     total energy              =     -90.30885176 Ry
     Harris-Foulkes estimate   =     -90.30885179 Ry
     estimated scf accuracy    <       0.00000018 Ry

     iteration #  8     ecut=    40.00 Ry     beta= 0.50
     Davidson diagonalization with overlap
     ethr =  5.76E-10,  avg # of iterations =  1.9

     total cpu time spent up to now is       84.2 secs

     End of self-consistent calculation

          k = 0.0000 0.0000 0.0000 (  1327 PWs)   bands (ev):

    -8.9251  -5.0879  -2.9399  -2.0050  -1.6266   0.2509   1.4701   3.9790
     6.7998   7.4305   7.6235   7.9998   9.5566  10.3281  11.6433  13.3824
    13.5498  14.9137  17.9497  18.1414

          k = 0.0000-0.0001 0.4883 (  1318 PWs)   bands (ev):

    -7.8892  -4.1958  -2.1596  -1.0378  -0.8668   0.7937   1.2133   3.2537
     4.6673   4.8006   7.0546   7.0744   8.3204   8.6792  10.4654  11.2322
    11.7037  14.3637  17.6588  18.8472

          k =-0.0001 0.0002-0.9766 (  1314 PWs)   bands (ev):

    -5.8440  -3.5124  -1.7333  -0.4140   0.1575   0.5897   1.8012   2.1803
     2.5549   4.6207   4.8108   6.0029   6.5980   8.8753   9.2116   9.4714
    11.1951  12.6854  17.7348  18.1525

          k = 0.0000 0.3999 0.0001 (  1322 PWs)   bands (ev):

    -8.2359  -5.8276  -4.4445  -2.2826  -1.5349   2.1313   2.2586   4.3241
     6.4860   7.6085   7.9400   7.9733   9.6028  10.6969  10.9535  12.6808
    13.3496  14.6370  16.2157  18.3661

          k = 0.0000 0.3998 0.4884 (  1309 PWs)   bands (ev):

    -7.2189  -4.8431  -3.5540  -1.5605  -0.6223   1.5758   3.1148   3.1691
     4.3091   4.9017   6.0398   7.3939   7.9439   9.8312  10.9824  11.0671
    12.3546  13.7087  17.6458  17.9190

          k =-0.0001 0.4001-0.9765 (  1328 PWs)   bands (ev):

    -5.3022  -2.8983  -2.5505  -1.4459  -0.3104   0.3916   0.8438   2.2132
     3.7096   5.1079   5.3689   6.2334   6.3625   8.0275  10.0523  11.2254
    11.4568  14.1334  17.1657  18.1862

          k =-0.0000 0.4000-0.4882 (  1309 PWs)   bands (ev):

    -7.2187  -4.8435  -3.5535  -1.5606  -0.6222   1.5735   3.1152   3.1690
     4.3092   4.9028   6.0474   7.3946   7.9366   9.8293  10.9838  11.0676
    12.3530  13.7107  17.6385  17.9187

          k =-0.5314 0.0000-0.0000 (  1302 PWs)   bands (ev):

    -7.6623  -7.6612  -1.9249  -1.9205  -0.5623  -0.5617   3.1562   3.1577
     6.7788   6.7797   7.9793   7.9853  10.3593  10.3644  11.3240  11.3253
    13.6226  13.6292  17.6258  17.6270

          k =-0.5314-0.0001 0.4883 (  1304 PWs)   bands (ev):

    -6.6548  -6.6530  -1.2167  -1.2125   0.1064   0.1069   3.0259   3.0276
     4.1342   4.1351   7.2650   7.2690   8.2671   8.2704  10.9228  10.9246
    12.6327  12.6358  17.5453  17.5508

          k =-0.5315 0.0002-0.9766 (  1312 PWs)   bands (ev):

    -4.7354  -4.7310  -1.8816  -1.8775   0.9852   0.9961   1.9830   1.9838
     4.1342   4.1377   6.0975   6.1028   6.1098   6.1157  10.4303  10.4355
    12.4219  12.4301  16.8643  16.8710

          k =-0.5314 0.3999 0.0000 (  1310 PWs)   bands (ev):

    -6.9776  -6.9771  -4.6641  -4.6602   2.6707   2.6716   3.8970   3.8976
     5.8194   5.8205   7.4107   7.4188   8.9737   8.9753  11.9314  11.9356
    14.0921  14.0966  17.2222  17.2245

          k =-0.5314 0.3998 0.4883 (  1312 PWs)   bands (ev):

    -5.9972  -5.9788  -3.7707  -3.6811   1.8821   3.0221   3.1627   3.9492
     4.6179   4.9056   5.8699   6.0271   7.5124   7.9460  10.2087  11.0043
    13.5869  14.1985  17.1487  17.4173

          k =-0.5315 0.4001-0.9765 (  1304 PWs)   bands (ev):

    -4.1821  -4.1785  -1.9670  -1.9632  -0.8573  -0.8572   1.9343   1.9366
     5.2641   5.2653   5.8653   5.8675   7.5006   7.5058  11.3561  11.3590
    11.7820  11.7842  15.9609  15.9686

          k =-0.5315 0.4000-0.4883 (  1312 PWs)   bands (ev):

    -5.9961  -5.9796  -3.7752  -3.6770   1.8800   3.0203   3.1658   3.9456
     4.6144   4.9121   5.8718   6.0350   7.5096   7.9413  10.2099  11.0020
    13.5857  14.1978  17.1510  17.4125

     the Fermi energy is    11.7876 ev

!    total energy              =     -90.30885179 Ry
     Harris-Foulkes estimate   =     -90.30885179 Ry
     estimated scf accuracy    <          6.7E-09 Ry

     The total energy is the sum of the following terms:

     one-electron contribution =      26.49776349 Ry
     hartree contribution      =       8.67693059 Ry
     xc contribution           =     -27.72591716 Ry
     ewald contribution        =     -97.75824438 Ry
     smearing contrib. (-TS)   =       0.00061565 Ry

     convergence has been achieved in   8 iterations

     Forces acting on atoms (cartesian axes, Ry/au):

     atom    1 type  1   force =    -0.00000878   -0.00089578   -0.00530393
     atom    2 type  1   force =     0.00001676    0.00007093    0.00397735
     atom    3 type  1   force =     0.00000979   -0.00075261    0.00637475
     atom    4 type  1   force =    -0.00001048   -0.00097746   -0.00573145
     atom    5 type  1   force =     0.00029571    0.00093244    0.00015694
     atom    6 type  1   force =    -0.00030364    0.00095148    0.00015962
     atom    7 type  1   force =    -0.00009775    0.00052692   -0.00014928
     atom    8 type  1   force =     0.00009840    0.00014408    0.00051599

     Total force =     0.011062     Total SCF correction =     0.000063


     Computing stress (Cartesian axis) and pressure

          total   stress  (Ry/bohr**3)                   (kbar)     P=       -0.84
   0.00007488   0.00000001  -0.00000065           11.02        0.00       -0.10
   0.00000001  -0.00004666  -0.00000298            0.00       -6.86       -0.44
  -0.00000065  -0.00000298  -0.00004532           -0.10       -0.44       -6.67


     number of scf cycles    =   7
     number of bfgs steps    =   6

     enthalpy old            =     -90.3081460676 Ry
     enthalpy new            =     -90.3088288786 Ry

     CASE: enthalpy_new < enthalpy_old

     new trust radius        =       0.0091290642 bohr
     new conv_thr            =       0.0000000637 Ry

     new unit-cell volume =    337.11351 a.u.^3 (    49.95507 Ang^3 )
     density =      3.19110 g/cm^3

CELL_PARAMETERS (bohr)
   8.883996269  -0.000109012  -0.000703188
   0.000099547   7.857163659   0.001150664
  -0.000320658  -0.001180007   4.829497795

ATOMIC_POSITIONS (crystal)
C             0.9861216566        0.8787555199        0.0490234006
C             0.4861283661        0.8784287075        0.3687834039
C             0.9861256814        0.4117705651        0.4232570245
C             0.4861196070        0.4115263533        0.9941489935
C             0.2361282176        0.6013505712        0.2088212242
C             0.7361153315        0.6013650708        0.2088240555
C             0.4860953600        0.0691644261        0.8634094508
C             0.9861537798        0.0694087861        0.5543334468



     Writing output data file ./pp.save/
     NEW-OLD atomic charge density approx. for the potential
     extrapolated charge   32.00563, renormalised to   32.00000

     total cpu time spent up to now is       84.3 secs

     Self-consistent Calculation

     iteration #  1     ecut=    40.00 Ry     beta= 0.50
     Davidson diagonalization with overlap
     ethr =  1.00E-06,  avg # of iterations =  3.9

     total cpu time spent up to now is       87.6 secs

     total energy              =     -90.30897588 Ry
     Harris-Foulkes estimate   =     -90.31231417 Ry
     estimated scf accuracy    <       0.00004782 Ry

     iteration #  2     ecut=    40.00 Ry     beta= 0.50
     Davidson diagonalization with overlap
     ethr =  1.49E-07,  avg # of iterations =  2.1

     total cpu time spent up to now is       89.8 secs

     total energy              =     -90.30897976 Ry
     Harris-Foulkes estimate   =     -90.30899769 Ry
     estimated scf accuracy    <       0.00004845 Ry

     iteration #  3     ecut=    40.00 Ry     beta= 0.50
     Davidson diagonalization with overlap
     ethr =  1.49E-07,  avg # of iterations =  2.0

     total cpu time spent up to now is       91.9 secs

     total energy              =     -90.30898894 Ry
     Harris-Foulkes estimate   =     -90.30899019 Ry
     estimated scf accuracy    <       0.00000448 Ry

     iteration #  4     ecut=    40.00 Ry     beta= 0.50
     Davidson diagonalization with overlap
     ethr =  1.40E-08,  avg # of iterations =  2.0

     total cpu time spent up to now is       94.0 secs

     total energy              =     -90.30898951 Ry
     Harris-Foulkes estimate   =     -90.30898991 Ry
     estimated scf accuracy    <       0.00000125 Ry

     iteration #  5     ecut=    40.00 Ry     beta= 0.50
     Davidson diagonalization with overlap
     ethr =  3.91E-09,  avg # of iterations =  1.8

     total cpu time spent up to now is       95.9 secs

     total energy              =     -90.30898975 Ry
     Harris-Foulkes estimate   =     -90.30898978 Ry
     estimated scf accuracy    <       0.00000021 Ry

     iteration #  6     ecut=    40.00 Ry     beta= 0.50
     Davidson diagonalization with overlap
     ethr =  6.43E-10,  avg # of iterations =  1.6

     total cpu time spent up to now is       97.8 secs

     End of self-consistent calculation

          k = 0.0000 0.0000 0.0000 (  1327 PWs)   bands (ev):

    -8.9231  -5.0967  -2.9209  -2.0081  -1.6252   0.2599   1.4549   3.9964
     6.7927   7.4432   7.6120   8.0079   9.5691  10.3176  11.6176  13.3999
    13.5616  14.9043  17.9097  18.1069

          k = 0.0000-0.0001 0.4883 (  1318 PWs)   bands (ev):

    -7.8855  -4.2021  -2.1418  -1.0382  -0.8671   0.8019   1.2034   3.2537
     4.6706   4.8202   7.0462   7.0668   8.3249   8.6769  10.4435  11.2417
    11.6850  14.3633  17.6672  18.8205

          k =-0.0001 0.0001-0.9766 (  1314 PWs)   bands (ev):

    -5.8290  -3.5216  -1.7383  -0.4373   0.1973   0.5998   1.7997   2.1873
     2.5676   4.6021   4.7855   6.0267   6.5997   8.8846   9.1969   9.4317
    11.1951  12.6922  17.7399  18.1371

          k = 0.0000 0.4002 0.0001 (  1322 PWs)   bands (ev):

    -8.2334  -5.8189  -4.4520  -2.2866  -1.5377   2.1416   2.2667   4.3176
     6.4812   7.6287   7.9649   7.9668   9.5914  10.7156  10.9262  12.6738
    13.3652  14.6231  16.1986  18.3341

          k = 0.0000 0.4001 0.4884 (  1309 PWs)   bands (ev):

    -7.2142  -4.8337  -3.5589  -1.5631  -0.6220   1.5693   3.1161   3.1808
     4.3073   4.9080   6.0472   7.3873   7.9489   9.8075  10.9753  11.0724
    12.3635  13.7027  17.6554  17.9234

          k =-0.0001 0.4003-0.9765 (  1328 PWs)   bands (ev):

    -5.2871  -2.9068  -2.5284  -1.4492  -0.3130   0.3647   0.8540   2.2196
     3.7026   5.1304   5.3454   6.2268   6.3768   8.0075  10.0494  11.2249
    11.4679  14.1286  17.1838  18.2032

          k =-0.0000 0.4003-0.4882 (  1309 PWs)   bands (ev):

    -7.2145  -4.8332  -3.5590  -1.5625  -0.6221   1.5675   3.1162   3.1812
     4.3080   4.9072   6.0514   7.3880   7.9434   9.8056  10.9757  11.0726
    12.3648  13.7043  17.6485  17.9258

          k =-0.5309 0.0000-0.0000 (  1302 PWs)   bands (ev):

    -7.6628  -7.6621  -1.9086  -1.9066  -0.5662  -0.5636   3.1467   3.1483
     6.7712   6.7724   7.9946   7.9968  10.3583  10.3638  11.3208  11.3223
    13.6217  13.6278  17.6148  17.6159

          k =-0.5309-0.0001 0.4883 (  1304 PWs)   bands (ev):

    -6.6531  -6.6523  -1.2023  -1.2008   0.1023   0.1048   3.0282   3.0291
     4.1290   4.1302   7.2687   7.2722   8.2559   8.2588  10.9251  10.9281
    12.6227  12.6257  17.5337  17.5359

          k =-0.5310 0.0001-0.9767 (  1312 PWs)   bands (ev):

    -4.7215  -4.7207  -1.9024  -1.8993   1.0237   1.0281   1.9804   1.9816
     4.1326   4.1364   6.0793   6.0826   6.1148   6.1185  10.4033  10.4067
    12.4380  12.4437  16.8484  16.8498

          k =-0.5309 0.4002 0.0001 (  1310 PWs)   bands (ev):

    -6.9779  -6.9768  -4.6573  -4.6562   2.6667   2.6690   3.8948   3.8962
     5.8117   5.8126   7.4274   7.4295   8.9802   8.9839  11.9378  11.9415
    14.0656  14.0670  17.2355  17.2376

          k =-0.5309 0.4001 0.4884 (  1312 PWs)   bands (ev):

    -5.9940  -5.9774  -3.7667  -3.6730   1.8711   3.0226   3.1541   3.9483
     4.6193   4.9207   5.8709   6.0306   7.5073   7.9318  10.2189  11.0127
    13.5725  14.1851  17.1596  17.4142

          k =-0.5310 0.4003-0.9766 (  1304 PWs)   bands (ev):

    -4.1679  -4.1675  -1.9626  -1.9616  -0.8634  -0.8626   1.9224   1.9247
     5.2736   5.2768   5.8683   5.8698   7.4956   7.4990  11.3513  11.3531
    11.7736  11.7766  15.9583  15.9624

          k =-0.5309 0.4003-0.4882 (  1312 PWs)   bands (ev):

    -5.9952  -5.9769  -3.7671  -3.6712   1.8691   3.0243   3.1556   3.9435
     4.6180   4.9218   5.8720   6.0362   7.5054   7.9290  10.2187  11.0128
    13.5726  14.1847  17.1604  17.4134

     the Fermi energy is    11.7772 ev

!    total energy              =     -90.30898978 Ry
     Harris-Foulkes estimate   =     -90.30898978 Ry
     estimated scf accuracy    <       0.00000001 Ry

     The total energy is the sum of the following terms:

     one-electron contribution =      26.50708310 Ry
     hartree contribution      =       8.67063778 Ry
     xc contribution           =     -27.72305432 Ry
     ewald contribution        =     -97.76449780 Ry
     smearing contrib. (-TS)   =       0.00084146 Ry

     convergence has been achieved in   6 iterations

     Forces acting on atoms (cartesian axes, Ry/au):

     atom    1 type  1   force =    -0.00000724    0.00004382   -0.00056692
     atom    2 type  1   force =     0.00001479    0.00033890    0.00020421
     atom    3 type  1   force =     0.00001595   -0.00098004    0.00412394
     atom    4 type  1   force =    -0.00001713   -0.00061595   -0.00361161
     atom    5 type  1   force =     0.00009297    0.00072381    0.00000790
     atom    6 type  1   force =    -0.00010035    0.00075549    0.00001145
     atom    7 type  1   force =    -0.00012216   -0.00006176    0.00063968
     atom    8 type  1   force =     0.00012316   -0.00020427   -0.00080864

     Total force =     0.005842     Total SCF correction =     0.000114


     Computing stress (Cartesian axis) and pressure

          total   stress  (Ry/bohr**3)                   (kbar)     P=       -2.93
   0.00000200   0.00000001  -0.00000093            0.29        0.00       -0.14
   0.00000001  -0.00002175  -0.00000097            0.00       -3.20       -0.14
  -0.00000093  -0.00000097  -0.00004009           -0.14       -0.14       -5.90


     number of scf cycles    =   8
     number of bfgs steps    =   7

     enthalpy old            =     -90.3088288786 Ry
[...]

ATOMIC_POSITIONS (crystal)
C             0.9673709473        0.8844422024        0.0701476613
C             0.4824218190        0.8614527022        0.3414819889
C             1.0027802253        0.4292489184        0.4566681840
C             0.4761638012        0.4131476123        0.9494962123
C             0.2564542991        0.5715004619        0.2369209095
C             0.7380555693        0.6267470157        0.2007798714
C             0.4126487943        0.0628179281        0.8061584723
C             1.0530925445        0.0724131590        0.6089477002



     Writing output data file ./pp.save/
     NEW-OLD atomic charge density approx. for the potential
     extrapolated charge   31.95733, renormalised to   32.00000

     total cpu time spent up to now is     2104.5 secs

     Self-consistent Calculation

     iteration #  1     ecut=    40.00 Ry     beta= 0.50
     Davidson diagonalization with overlap
     ethr =  1.00E-06,  avg # of iterations =  5.1

     total cpu time spent up to now is     2130.0 secs

     total energy              =     -90.35437399 Ry
     Harris-Foulkes estimate   =     -90.33174080 Ry
     estimated scf accuracy    <       0.00010735 Ry

     iteration #  2     ecut=    40.00 Ry     beta= 0.50
     Davidson diagonalization with overlap
     ethr =  3.35E-07,  avg # of iterations =  2.5

     total cpu time spent up to now is     2143.8 secs

     total energy              =     -90.35439923 Ry
     Harris-Foulkes estimate   =     -90.35442365 Ry
     estimated scf accuracy    <       0.00005874 Ry

     iteration #  3     ecut=    40.00 Ry     beta= 0.50
     Davidson diagonalization with overlap
     ethr =  1.84E-07,  avg # of iterations =  2.0

     total cpu time spent up to now is     2155.9 secs

     total energy              =     -90.35440849 Ry
     Harris-Foulkes estimate   =     -90.35441169 Ry
     estimated scf accuracy    <       0.00000874 Ry

     iteration #  4     ecut=    40.00 Ry     beta= 0.50
     Davidson diagonalization with overlap
     ethr =  2.73E-08,  avg # of iterations =  2.0

     total cpu time spent up to now is     2168.5 secs

     total energy              =     -90.35440983 Ry
     Harris-Foulkes estimate   =     -90.35441124 Ry
     estimated scf accuracy    <       0.00000426 Ry

     iteration #  5     ecut=    40.00 Ry     beta= 0.50
     Davidson diagonalization with overlap
     ethr =  1.33E-08,  avg # of iterations =  2.0

     total cpu time spent up to now is     2180.4 secs

     total energy              =     -90.35441063 Ry
     Harris-Foulkes estimate   =     -90.35441066 Ry
     estimated scf accuracy    <       0.00000031 Ry

     iteration #  6     ecut=    40.00 Ry     beta= 0.50
     Davidson diagonalization with overlap
     ethr =  9.61E-10,  avg # of iterations =  2.0

     total cpu time spent up to now is     2192.7 secs

     total energy              =     -90.35441068 Ry
     Harris-Foulkes estimate   =     -90.35441069 Ry
     estimated scf accuracy    <       0.00000005 Ry

     iteration #  7     ecut=    40.00 Ry     beta= 0.50
     Davidson diagonalization with overlap
     ethr =  1.46E-10,  avg # of iterations =  2.0

     total cpu time spent up to now is     2205.1 secs

     End of self-consistent calculation

          k = 0.0000 0.0000 0.0000 (  1327 PWs)   bands (ev):

    -9.0031  -4.3513  -3.0876  -2.0276  -0.6338   1.1543   2.6984   4.1669
     6.7326   6.9961   7.8228   8.4728   9.9592  10.0522  12.0834  13.2076
    14.3504  16.7322  17.3412  18.0519

          k = 0.0303 0.0032 0.4762 (  1318 PWs)   bands (ev):

    -7.9937  -3.8311  -2.2815  -1.0548  -0.2057   1.4855   1.8164   3.8593
     4.7382   5.3964   6.8637   7.1625   8.3503   8.6318  10.0168  12.1773
    13.0824  16.6425  18.0783  18.9475

          k =-0.0606-0.0065-0.9525 (  1314 PWs)   bands (ev):

    -5.7995  -4.3646  -1.6376  -0.6646   0.9648   1.1979   2.2863   2.6964
     3.3437   4.3325   5.4967   5.9723   7.3122   8.4310   9.3271  10.1381
    11.3455  15.3901  17.7180  18.4322

          k = 0.0003 0.4102 0.0025 (  1322 PWs)   bands (ev):

    -8.2843  -5.7869  -3.6528  -1.4871  -1.2604   1.9717   3.0532   5.1830
     7.4193   7.6931   8.5032   8.6576   9.0099   9.6622  11.4010  12.4696
    14.2718  15.7069  16.9828  17.5327

          k = 0.0306 0.4135 0.4788 (  1309 PWs)   bands (ev):

    -7.2771  -4.9280  -2.9891  -0.9224  -0.4362   1.4612   3.0622   3.6508
     4.8249   5.6962   6.3925   7.3056   8.4692   9.2279  10.7904  12.1336
    13.6204  16.5590  17.7785  18.8610

          k =-0.0604 0.4037-0.9499 (  1328 PWs)   bands (ev):

    -5.3289  -3.7513  -1.8174  -1.5597  -0.4921   0.2051   1.6314   3.1199
     4.4696   4.9912   5.8777   6.6017   7.2617   7.6160  10.0929  11.2722
    13.1690  16.8318  17.7818  18.9809

          k =-0.0301 0.4070-0.4737 (  1309 PWs)   bands (ev):

    -7.3200  -4.8128  -3.0609  -0.8855  -0.3798   1.3416   2.8666   3.6515
     5.1364   5.6736   6.5189   7.2989   8.7770   9.0082  10.0829  12.1757
    13.8222  16.8516  17.3401  19.0035

          k =-0.5438-0.0017-0.0553 (  1302 PWs)   bands (ev):

    -8.1537  -6.9459  -1.8247  -0.8577  -0.5516   0.5875   3.2684   4.2494
     5.9350   7.8829   8.3826   8.6952   9.2293  10.3026  11.3976  12.7505
    13.6480  15.2442  17.0790  17.3504

          k =-0.5135 0.0015 0.4210 (  1304 PWs)   bands (ev):

    -7.2548  -5.9254  -1.4672  -0.5750   0.1538   1.2478   2.7859   3.4782
     4.4532   5.5882   7.1285   7.6881   7.9635   8.4681   9.3490  11.8328
    13.2817  16.5208  17.0906  18.3805

          k =-0.6044-0.0082-1.0077 (  1312 PWs)   bands (ev):

    -5.1532  -4.6839  -2.7893  -1.2057   1.6686   1.7774   2.2107   3.2439
     4.2001   5.1287   5.4371   5.8087   6.2238   6.6011   8.7767  11.8810
    12.1801  16.1118  17.7734  18.4039

          k =-0.5435 0.4085-0.0527 (  1310 PWs)   bands (ev):

    -7.3998  -6.3911  -4.9850  -3.2439   2.9442   3.4358   4.0633   4.9995
     5.9760   6.1648   7.9739   8.1286   8.6818   9.7747  10.7099  12.9331
    13.5760  14.8829  16.3121  18.1004

          k =-0.5132 0.4117 0.4235 (  1312 PWs)   bands (ev):

    -6.5095  -5.3866  -4.1962  -2.3493   1.4408   2.9679   3.7771   4.4942
     4.8718   5.7350   5.9332   6.4286   7.7251   8.7517  10.0440  12.2310
    13.5090  16.0287  17.5784  18.5917

          k =-0.6041 0.4020-1.0052 (  1304 PWs)   bands (ev):

    -4.6057  -4.1312  -2.9570  -1.1566  -0.3711  -0.1025   1.8419   2.5035
     5.0077   5.5319   5.9564   7.0678   7.8450   8.4600   8.6652  12.2941
    13.1356  15.4367  16.9586  17.7864

          k =-0.5738 0.4052-0.5290 (  1312 PWs)   bands (ev):

    -6.5462  -5.4175  -4.1015  -2.2783   1.3596   2.9660   3.5082   4.2903
     5.0453   5.6177   6.1521   7.0218   7.8010   8.7798   9.3614  11.8880
    13.8168  15.9701  17.8242  18.5784

     the Fermi energy is    12.8930 ev

!    total energy              =     -90.35441069 Ry
     Harris-Foulkes estimate   =     -90.35441069 Ry
     estimated scf accuracy    <       0.00000001 Ry

     The total energy is the sum of the following terms:

     one-electron contribution =      25.31252227 Ry
     hartree contribution      =       9.63717989 Ry
     xc contribution           =     -27.82591996 Ry
     ewald contribution        =     -97.47799808 Ry
     smearing contrib. (-TS)   =      -0.00019482 Ry

     convergence has been achieved in   7 iterations

     Forces acting on atoms (cartesian axes, Ry/au):

     atom    1 type  1   force =    -0.00130305    0.00143637   -0.00066730
     atom    2 type  1   force =    -0.00093951    0.00320703    0.00085604
     atom    3 type  1   force =    -0.00187438    0.00037374   -0.00239755
     atom    4 type  1   force =    -0.00302153    0.00269559   -0.00433482
     atom    5 type  1   force =     0.00717792   -0.00732587    0.00993367
     atom    6 type  1   force =     0.00053747   -0.00007813   -0.00192476
     atom    7 type  1   force =     0.00211895    0.00013142    0.00256475
     atom    8 type  1   force =    -0.00269587   -0.00044014   -0.00403002

     Total force =     0.017417     Total SCF correction =     0.000181


     Computing stress (Cartesian axis) and pressure

          total   stress  (Ry/bohr**3)                   (kbar)     P=        1.15
  -0.00001046  -0.00000934  -0.00001849           -1.54       -1.37       -2.72
  -0.00000934   0.00001965   0.00000107           -1.37        2.89        0.16
  -0.00001849   0.00000107   0.00001423           -2.72        0.16        2.09


     number of scf cycles    =  42
     number of bfgs steps    =  37

     enthalpy old            =     -90.3541519728 Ry
     enthalpy new            =     -90.3543881623 Ry

     CASE: enthalpy_new < enthalpy_old


     WARNING: bfgs curvature condition failed, Theta= 0.951
     new trust radius        =       0.0260835444 bohr
     new conv_thr            =       0.0000000236 Ry

     new unit-cell volume =    330.94539 a.u.^3 (    49.04105 Ang^3 )
     density =      3.25058 g/cm^3

CELL_PARAMETERS (bohr)
   8.727616336   0.000796915  -0.549098237
  -0.015898365   7.662823845  -0.052096612
  -0.500694718  -0.030825696   4.980193944

ATOMIC_POSITIONS (crystal)
C             0.9669469513        0.8839341076        0.0701699778
C             0.4824256311        0.8616908907        0.3402774025
C             1.0024527126        0.4293605944        0.4587455240
C             0.4758691247        0.4137162279        0.9444802040
C             0.2580793696        0.5708622182        0.2416511719
C             0.7380882109        0.6278449739        0.1994903961
C             0.4120218931        0.0626048417        0.8052250943
C             1.0531041067        0.0717561458        0.6105612293



     Writing output data file ./pp.save/
     NEW-OLD atomic charge density approx. for the potential
     extrapolated charge   31.95522, renormalised to   32.00000

     total cpu time spent up to now is     2205.5 secs

     Self-consistent Calculation

     iteration #  1     ecut=    40.00 Ry     beta= 0.50
     Davidson diagonalization with overlap
     ethr =  1.00E-06,  avg # of iterations =  6.4

     total cpu time spent up to now is     2235.8 secs

     total energy              =     -90.35478453 Ry
     Harris-Foulkes estimate   =     -90.33102537 Ry
     estimated scf accuracy    <       0.00020894 Ry

     iteration #  2     ecut=    40.00 Ry     beta= 0.50
     Davidson diagonalization with overlap
     ethr =  6.53E-07,  avg # of iterations =  2.1

     total cpu time spent up to now is     2249.7 secs

     total energy              =     -90.35481633 Ry
     Harris-Foulkes estimate   =     -90.35485202 Ry
     estimated scf accuracy    <       0.00008215 Ry

     iteration #  3     ecut=    40.00 Ry     beta= 0.50
     Davidson diagonalization with overlap
     ethr =  2.57E-07,  avg # of iterations =  2.0

     total cpu time spent up to now is     2262.7 secs

     total energy              =     -90.35483115 Ry
     Harris-Foulkes estimate   =     -90.35483850 Ry
     estimated scf accuracy    <       0.00002153 Ry

     iteration #  4     ecut=    40.00 Ry     beta= 0.50
     Davidson diagonalization with overlap
     ethr =  6.73E-08,  avg # of iterations =  2.0

     total cpu time spent up to now is     2275.1 secs

     total energy              =     -90.35483476 Ry
     Harris-Foulkes estimate   =     -90.35483640 Ry
     estimated scf accuracy    <       0.00000517 Ry

     iteration #  5     ecut=    40.00 Ry     beta= 0.50
     Davidson diagonalization with overlap
     ethr =  1.62E-08,  avg # of iterations =  2.0

     total cpu time spent up to now is     2287.3 secs

     total energy              =     -90.35483581 Ry
     Harris-Foulkes estimate   =     -90.35483582 Ry
     estimated scf accuracy    <       0.00000045 Ry

     iteration #  6     ecut=    40.00 Ry     beta= 0.50
     Davidson diagonalization with overlap
     ethr =  1.40E-09,  avg # of iterations =  2.0

     total cpu time spent up to now is     2299.9 secs

     total energy              =     -90.35483590 Ry
     Harris-Foulkes estimate   =     -90.35483590 Ry
     estimated scf accuracy    <       0.00000007 Ry

     iteration #  7     ecut=    40.00 Ry     beta= 0.50
     Davidson diagonalization with overlap
     ethr =  2.33E-10,  avg # of iterations =  2.0

     total cpu time spent up to now is     2312.9 secs

     End of self-consistent calculation

          k = 0.0000 0.0000 0.0000 (  1327 PWs)   bands (ev):

    -8.9954  -4.3372  -3.0807  -2.0196  -0.5942   1.1906   2.7231   4.1870
     6.7393   7.0059   7.8387   8.5308   9.9704  10.0999  12.1488  13.2049
    14.4561  16.6909  17.3706  18.0800

          k = 0.0300 0.0033 0.4766 (  1318 PWs)   bands (ev):

    -7.9822  -3.8080  -2.2715  -1.0491  -0.1667   1.5178   1.8535   3.8730
     4.7462   5.4226   6.8706   7.1914   8.3758   8.6541  10.0102  12.2232
    13.1382  16.6690  18.0868  18.9649

          k =-0.0600-0.0066-0.9531 (  1314 PWs)   bands (ev):

    -5.7643  -4.3620  -1.6184  -0.6375   0.9802   1.2451   2.2973   2.7010
     3.4011   4.3434   5.4940   6.0019   7.3098   8.4481   9.3019  10.1471
    11.4359  15.4389  17.6689  18.4981

          k = 0.0001 0.4104 0.0026 (  1322 PWs)   bands (ev):

    -8.2779  -5.7720  -3.6398  -1.4744  -1.2356   1.9913   3.0882   5.2133
     7.4497   7.7228   8.5572   8.6787   9.0258   9.6844  11.3948  12.5033
    14.3315  15.7371  16.9902  17.5822

          k = 0.0301 0.4137 0.4791 (  1309 PWs)   bands (ev):

    -7.2665  -4.9101  -2.9639  -0.8914  -0.4320   1.4803   3.0784   3.6978
     4.8170   5.7195   6.4378   7.3390   8.4804   9.2401  10.8137  12.1460
    13.6765  16.6050  17.7813  18.9224

          k =-0.0598 0.4038-0.9506 (  1328 PWs)   bands (ev):

    -5.2958  -3.7462  -1.7704  -1.5318  -0.5093   0.2288   1.6701   3.1475
     4.4725   4.9913   5.8960   6.6093   7.3000   7.6257  10.0887  11.2996
    13.2340  16.9144  17.8532  18.9872

          k =-0.0299 0.4071-0.4740 (  1309 PWs)   bands (ev):

    -7.3094  -4.7946  -3.0423  -0.8562  -0.3600   1.3712   2.8659   3.6815
     5.1729   5.7008   6.5180   7.3266   8.8145   9.0277  10.0614  12.2143
    13.8659  16.9020  17.3830  19.0583

          k =-0.5439-0.0015-0.0547 (  1302 PWs)   bands (ev):

    -8.1453  -6.9378  -1.8006  -0.8474  -0.5184   0.6025   3.2888   4.3036
     5.9375   7.9055   8.4009   8.7218   9.2469  10.3294  11.4349  12.7937
    13.7602  15.2273  17.1351  17.3273

          k =-0.5139 0.0018 0.4219 (  1304 PWs)   bands (ev):

    -7.2415  -5.9129  -1.4376  -0.5588   0.1797   1.2631   2.8037   3.5142
     4.4849   5.6038   7.1395   7.7112   7.9918   8.4752   9.3738  11.8444
    13.3281  16.5730  17.1384  18.4074

          k =-0.6038-0.0081-1.0078 (  1312 PWs)   bands (ev):

    -5.1237  -4.6462  -2.7961  -1.2109   1.6812   1.8180   2.2514   3.2874
     4.2530   5.1569   5.4246   5.8133   6.2150   6.6271   8.7886  11.8965
    12.2065  16.1606  17.8034  18.4843

          k =-0.5437 0.4089-0.0521 (  1310 PWs)   bands (ev):

    -7.3919  -6.3868  -4.9686  -3.2138   2.9483   3.4567   4.0958   5.0531
     5.9944   6.1821   8.0258   8.1669   8.6939   9.7776  10.7606  12.8795
    13.6181  14.9811  16.3392  18.0812

          k =-0.5138 0.4122 0.4244 (  1312 PWs)   bands (ev):

    -6.4964  -5.3765  -4.1765  -2.3153   1.4457   2.9738   3.8130   4.5375
     4.8892   5.7462   5.9692   6.4675   7.7339   8.7616  10.0691  12.2655
    13.5281  16.0890  17.6286  18.6149

          k =-0.6037 0.4023-1.0053 (  1304 PWs)   bands (ev):

    -4.5745  -4.0962  -2.9479  -1.1211  -0.3821  -0.0840   1.8434   2.5087
     5.0317   5.5693   5.9949   7.1245   7.8573   8.4799   8.6649  12.3155
    13.1713  15.4651  16.9836  17.7861

          k =-0.5737 0.4056-0.5287 (  1312 PWs)   bands (ev):

    -6.5334  -5.4088  -4.0785  -2.2487   1.3882   2.9630   3.5429   4.3080
     5.0752   5.6279   6.1670   7.0804   7.8113   8.8025   9.3842  11.8843
    13.8586  16.0344  17.8549  18.6055

     the Fermi energy is    12.8862 ev

!    total energy              =     -90.35483591 Ry
     Harris-Foulkes estimate   =     -90.35483591 Ry
     estimated scf accuracy    <       0.00000002 Ry

     The total energy is the sum of the following terms:

     one-electron contribution =      25.39646519 Ry
     hartree contribution      =       9.62277723 Ry
     xc contribution           =     -27.83079220 Ry
     ewald contribution        =     -97.54349783 Ry
     smearing contrib. (-TS)   =       0.00021171 Ry

     convergence has been achieved in   7 iterations

     Forces acting on atoms (cartesian axes, Ry/au):

     atom    1 type  1   force =    -0.00237710    0.00425309    0.00077866
     atom    2 type  1   force =    -0.00210483    0.00432846    0.00147686
     atom    3 type  1   force =    -0.00341418    0.00155992   -0.00577766
     atom    4 type  1   force =    -0.00556126    0.00389079   -0.00482070
     atom    5 type  1   force =     0.01182969   -0.01424715    0.01457017
     atom    6 type  1   force =     0.00132444   -0.00347277   -0.00201818
     atom    7 type  1   force =     0.00445045    0.00136550    0.00295555
     atom    8 type  1   force =    -0.00414721    0.00232216   -0.00716471

     Total force =     0.029050     Total SCF correction =     0.000232


     Computing stress (Cartesian axis) and pressure

          total   stress  (Ry/bohr**3)                   (kbar)     P=        2.92
   0.00000543  -0.00002173  -0.00004875            0.80       -3.20       -7.17
  -0.00002173   0.00004865   0.00000370           -3.20        7.16        0.54
  -0.00004875   0.00000370   0.00000544           -7.17        0.54        0.80


     number of scf cycles    =  43
     number of bfgs steps    =  38

     enthalpy old            =     -90.3543881623 Ry
     enthalpy new            =     -90.3548134122 Ry

     CASE: enthalpy_new < enthalpy_old


     WARNING: bfgs curvature condition failed, Theta= 0.237
     new trust radius        =       0.0391267797 bohr
     new conv_thr            =       0.0000000425 Ry

     new unit-cell volume =    330.25413 a.u.^3 (    48.93861 Ang^3 )
     density =      3.25738 g/cm^3

CELL_PARAMETERS (bohr)
   8.723375860   0.005181443  -0.538874176
  -0.010859261   7.658541441  -0.053809951
  -0.491898250  -0.031470669   4.973911170

ATOMIC_POSITIONS (crystal)
C             0.9663143558        0.8831567271        0.0702045228
C             0.4824317531        0.8620472468        0.3384598340
C             1.0019638775        0.4295277551        0.4618968817
C             0.4754303976        0.4145735706        0.9369213197
C             0.2605144269        0.5699151390        0.2487525278
C             0.7381354938        0.6295099094        0.1975480195
C             0.4110731758        0.0622802866        0.8038110433
C             1.0531245194        0.0707593654        0.6130068512



     Writing output data file ./pp.save/
     NEW-OLD atomic charge density approx. for the potential
     extrapolated charge   31.93302, renormalised to   32.00000

     total cpu time spent up to now is     2313.4 secs

     Self-consistent Calculation

     iteration #  1     ecut=    40.00 Ry     beta= 0.50
     Davidson diagonalization with overlap
     ethr =  1.00E-06,  avg # of iterations =  7.8

     total cpu time spent up to now is     2348.3 secs

     total energy              =     -90.35549016 Ry
     Harris-Foulkes estimate   =     -90.31993938 Ry
     estimated scf accuracy    <       0.00047760 Ry

     iteration #  2     ecut=    40.00 Ry     beta= 0.50
     Davidson diagonalization with overlap
     ethr =  1.49E-06,  avg # of iterations =  2.6

     total cpu time spent up to now is     2363.7 secs

     total energy              =     -90.35556304 Ry
     Harris-Foulkes estimate   =     -90.35565931 Ry
     estimated scf accuracy    <       0.00023022 Ry

     iteration #  3     ecut=    40.00 Ry     beta= 0.50
     Davidson diagonalization with overlap
